/*--------------------------------*- C++ -*----------------------------------*\
  =========                 |
  \\      /  F ield         | OpenFOAM: The Open Source CFD Toolbox
   \\    /   O peration     | Website:  https://openfoam.org
    \\  /    A nd           | Version:  9
     \\/     M anipulation  |
\*---------------------------------------------------------------------------*/
FoamFile
{
    format      ascii;
    class       volScalarField;
    location    "3";
    object      p;
}
// * * * * * * * * * * * * * * * * * * * * * * * * * * * * * * * * * * * * * //

dimensions      [0 2 -2 0 0 0 0];

internalField   nonuniform List<scalar> 
400
(
-3.78258e-09
-1.80671e-06
3.04884e-05
8.43645e-05
0.000161557
0.000261322
0.000382449
0.000523238
0.000681357
0.000853763
0.00103663
0.00122551
0.00141482
0.0015985
0.00176995
0.00192235
0.00204897
0.00214349
0.00220425
0.00221321
7.50904e-07
-1.69263e-06
3.02079e-05
8.31372e-05
0.00015918
0.00025773
0.000377715
0.00051756
0.000675058
0.000847268
0.00103032
0.00122005
0.00141075
0.0015963
0.00176998
0.00192476
0.0020537
0.00215017
0.0022126
0.00222161
-3.36021e-05
-3.70926e-05
-5.20848e-06
4.7928e-05
0.00012464
0.000224472
0.000346509
0.00048934
0.000650897
0.000828349
0.0010181
0.0012155
0.00141497
0.00161011
0.00179377
0.00195839
0.00209626
0.00219991
0.00226732
0.00227709
-9.25822e-05
-9.72532e-05
-6.5255e-05
-1.15689e-05
6.64674e-05
0.000168651
0.000294317
0.000442301
0.000610763
0.000797065
0.000997694
0.00120768
0.00142174
0.00163289
0.00183328
0.00201442
0.00216741
0.00228331
0.00235929
0.00237108
-0.000178627
-0.000184844
-0.000152667
-9.81491e-05
-1.817e-05
8.74192e-05
0.000218303
0.00037366
0.000551956
0.000750787
0.000966711
0.00119511
0.00143018
0.00166454
0.00188945
0.00209505
0.00227071
0.00240524
0.00249434
0.00250961
-0.000292875
-0.000301177
-0.000268945
-0.000213592
-0.000131379
-2.16798e-05
0.000115667
0.000280307
0.000471132
0.000686087
0.000921974
0.00117444
0.00143742
0.00170304
0.00196147
0.00220112
0.00240892
0.00257038
0.00267878
0.00269967
-0.000436672
-0.000447797
-0.000415914
-0.000360119
-0.00027584
-0.000161815
-1.72464e-05
0.000158139
0.000363811
0.000598236
0.00085865
0.00114092
0.00143913
0.00174498
0.00204755
0.00233309
0.00258532
0.00278503
0.00292144
0.00295143
-0.000611609
-0.000626567
-0.000595824
-0.00054051
-0.000454945
-0.000337021
-0.000185107
1.87865e-06
0.000224165
0.000480927
0.000770049
0.00108787
0.00142899
0.00178499
0.00214412
0.00249038
0.00280332
0.00305725
0.00323445
0.00327969
-0.000819378
-0.000839556
-0.000811276
-0.00075808
-0.000672812
-0.000552247
-0.000393678
-0.000195024
4.48849e-05
0.000326133
0.000647517
0.00100624
0.00139794
0.00181471
0.00224463
0.00266998
0.00306542
0.00339677
0.00363413
0.00370613
-0.00106162
-0.00108895
-0.00106518
-0.0010167
-0.000934354
-0.000813448
-0.000649919
-0.000440495
-0.00018293
0.000123943
0.000480106
0.000884077
0.00133332
0.00182145
0.00233777
0.00286418
0.00337116
0.00381429
0.00414177
0.00426355
-0.00133975
-0.00137693
-0.00136073
-0.00132085
-0.0012454
-0.00112772
-0.00096209
-0.000743901
-0.000469794
-0.000137474
0.000254393
0.000706041
0.00121794
0.00178655
0.00240477
0.00305715
0.00371244
0.00431904
0.00478388
0.00500345
-0.00165479
-0.00170571
-0.00170145
-0.00167581
-0.00161294
-0.00150354
-0.00133989
-0.00111604
-0.000827673
-0.000471569
-4.49656e-05
0.000454459
0.00102976
0.00168337
0.00241558
0.00321891
0.00406612
0.0049125
0.0055903
0.00600877
-0.00200585
-0.00207655
-0.00209076
-0.00208781
-0.00204552
-0.00195112
-0.00179465
-0.00156906
-0.00126967
-0.000893065
-0.000435784
0.000107068
0.000738704
0.00147501
0.00232472
0.00329736
0.00438126
0.00556946
0.00656779
0.00743392
-0.00240041
-0.00249475
-0.00253395
-0.00256508
-0.00255404
-0.00248308
-0.0023397
-0.00211631
-0.00180903
-0.00141569
-0.000932491
-0.000349857
0.000344296
0.00114166
0.00208397
0.00321066
0.00454791
0.00619903
0.00766454
0.00950475
-0.00279097
-0.00296225
-0.00303208
-0.00312396
-0.00315756
-0.00311768
-0.00299147
-0.00277231
-0.0024588
-0.00205315
-0.00156023
-0.000982852
-0.000312518
0.000476198
0.00145527
0.00269298
0.00423501
0.00655135
0.00860389
0.0124191
-0.00331933
-0.00338514
-0.00354905
-0.00368881
-0.00380379
-0.00383287
-0.00375036
-0.00354544
-0.00322397
-0.00279694
-0.00227378
-0.00165607
-0.000931696
-2.64784e-05
0.000958413
0.0022375
0.00376077
0.00652463
0.00885912
0.0155625
-0.0036086
-0.00442731
-0.00442637
-0.00484
-0.00495247
-0.00495127
-0.00480949
-0.00454322
-0.0041712
-0.00371252
-0.00319495
-0.00264283
-0.00208757
-0.00156828
-0.000983545
-0.000167929
0.000180207
0.00357986
0.0047019
0.0172412
-0.00492815
-0.00394867
-0.00450806
-0.00476943
-0.00519693
-0.00542995
-0.00548413
-0.00533273
-0.00500266
-0.00452833
-0.00396971
-0.00335775
-0.00277493
-0.00222861
-0.0019345
-0.00157124
-0.0024009
0.000338826
0.000190871
0.0191699
-0.00308219
-0.0068787
-0.00666986
-0.00797683
-0.00810265
-0.00809052
-0.00776234
-0.00724454
-0.00661838
-0.00590119
-0.00520752
-0.00455924
-0.0040659
-0.00388531
-0.00436296
-0.00517864
-0.00929842
-0.00772232
-0.00719494
0.0240547
-0.0146511
-0.00396635
-0.00476541
-0.00585293
-0.00657305
-0.00696831
-0.00709381
-0.00691542
-0.00651071
-0.00587229
-0.00528877
-0.00450254
-0.00417135
-0.0035775
-0.00403216
-0.00377209
-0.00341337
0.00570867
0.0302706
0.0902257
)
;

boundaryField
{
    movingWall
    {
        type            zeroGradient;
    }
    fixedWalls
    {
        type            zeroGradient;
    }
    frontAndBack
    {
        type            empty;
    }
}


// ************************************************************************* //
