/*--------------------------------*- C++ -*----------------------------------*\
  =========                 |
  \\      /  F ield         | OpenFOAM: The Open Source CFD Toolbox
   \\    /   O peration     | Website:  https://openfoam.org
    \\  /    A nd           | Version:  9
     \\/     M anipulation  |
\*---------------------------------------------------------------------------*/
FoamFile
{
    format      ascii;
    class       surfaceScalarField;
    location    "3";
    object      phi;
}
// * * * * * * * * * * * * * * * * * * * * * * * * * * * * * * * * * * * * * //

dimensions      [0 3 -1 0 0 0 0];

internalField   nonuniform List<scalar> 
760
(
-6.50668e-06
6.50669e-06
-1.51698e-05
8.66308e-06
-2.37126e-05
8.54286e-06
-3.17445e-05
8.03185e-06
-3.90708e-05
7.32629e-06
-4.55206e-05
6.44982e-06
-5.09358e-05
5.41523e-06
-5.51723e-05
4.23646e-06
-5.81018e-05
2.92956e-06
-5.96152e-05
1.51337e-06
-5.96244e-05
9.22583e-09
-5.80674e-05
-1.55706e-06
-5.49186e-05
-3.14878e-06
-5.01955e-05
-4.72305e-06
-4.39658e-05
-6.22979e-06
-3.6355e-05
-7.61071e-06
-2.75543e-05
-8.80074e-06
-1.78382e-05
-9.71611e-06
-7.75572e-06
-1.00825e-05
-7.75572e-06
-8.96383e-06
1.54705e-05
-2.04796e-05
2.01788e-05
-3.1801e-05
1.98642e-05
-4.24222e-05
1.86531e-05
-5.20811e-05
1.69852e-05
-6.05506e-05
1.49194e-05
-6.76252e-05
1.24898e-05
-7.31215e-05
9.73269e-06
-7.68795e-05
6.68756e-06
-7.87615e-05
3.3954e-06
-7.8684e-05
-6.82946e-08
-7.65493e-05
-3.69176e-06
-7.23433e-05
-7.35477e-06
-6.60947e-05
-1.09717e-05
-5.78941e-05
-1.44303e-05
-4.79057e-05
-1.75991e-05
-3.63767e-05
-2.03298e-05
-2.36622e-05
-2.24306e-05
-1.0458e-05
-2.32867e-05
-1.82137e-05
-9.54957e-06
2.50201e-05
-2.18083e-05
3.24375e-05
-3.38506e-05
3.19066e-05
-4.51455e-05
2.9948e-05
-5.54194e-05
2.72591e-05
-6.44357e-05
2.39356e-05
-7.19807e-05
2.00348e-05
-7.78641e-05
1.56161e-05
-8.19199e-05
1.07434e-05
-8.40122e-05
5.48772e-06
-8.40204e-05
-6.01394e-08
-8.18505e-05
-5.8616e-06
-7.74756e-05
-1.17298e-05
-7.09089e-05
-1.75384e-05
-6.22273e-05
-2.31119e-05
-5.15879e-05
-2.82384e-05
-3.92421e-05
-3.26757e-05
-2.55662e-05
-3.61065e-05
-1.13143e-05
-3.75387e-05
-2.95279e-05
-1.012e-05
3.51401e-05
-2.31301e-05
4.54477e-05
-3.59094e-05
4.46858e-05
-4.79013e-05
4.19398e-05
-5.8822e-05
3.81799e-05
-6.84281e-05
3.35417e-05
-7.65006e-05
2.81073e-05
-8.28438e-05
2.19593e-05
-8.72842e-05
1.51837e-05
-8.967e-05
7.87352e-06
-8.98853e-05
1.552e-07
-8.77926e-05
-7.95427e-06
-8.33405e-05
-1.61819e-05
-7.65149e-05
-2.4364e-05
-6.73639e-05
-3.22629e-05
-5.60221e-05
-3.95802e-05
-4.27355e-05
-4.59623e-05
-2.79053e-05
-5.09367e-05
-1.23676e-05
-5.30763e-05
-4.18956e-05
-1.08968e-05
4.60369e-05
-2.49247e-05
5.94756e-05
-3.87024e-05
5.84635e-05
-5.16368e-05
5.48742e-05
-6.34309e-05
4.99741e-05
-7.38336e-05
4.39444e-05
-8.26209e-05
3.68946e-05
-8.95926e-05
2.8931e-05
-9.45685e-05
2.01596e-05
-9.73859e-05
1.06909e-05
-9.78969e-05
6.66207e-07
-9.59546e-05
-9.89652e-06
-9.14518e-05
-2.06847e-05
-8.43262e-05
-3.14896e-05
-7.4578e-05
-4.20111e-05
-6.23e-05
-5.18582e-05
-4.77194e-05
-6.05428e-05
-3.12645e-05
-6.73917e-05
-1.38922e-05
-7.04486e-05
-5.57878e-05
-1.19131e-05
5.795e-05
-2.72679e-05
7.48305e-05
-4.23424e-05
7.3538e-05
-5.64949e-05
6.90267e-05
-6.94126e-05
6.28918e-05
-8.08368e-05
5.53685e-05
-9.05408e-05
4.65987e-05
-9.83233e-05
3.67134e-05
-0.000104
2.5836e-05
-0.000107396
1.40868e-05
-0.00010834
1.61046e-06
-0.00010665
-1.15862e-05
-0.000102157
-2.51775e-05
-9.47259e-05
-3.89211e-05
-8.42766e-05
-5.24603e-05
-7.08279e-05
-6.5307e-05
-5.45594e-05
-7.68113e-05
-3.5917e-05
-8.60341e-05
-1.60235e-05
-9.03421e-05
-7.18112e-05
-1.31929e-05
7.11429e-05
-3.02148e-05
9.18524e-05
-4.69087e-05
9.02319e-05
-6.25715e-05
8.46894e-05
-7.68724e-05
7.71927e-05
-8.95479e-05
6.8044e-05
-0.000100374
5.74251e-05
-0.000109156
4.54951e-05
-0.000115711
3.23913e-05
-0.000119859
1.82347e-05
-0.000121406
3.15763e-06
-0.000120129
-1.28635e-05
-0.000115777
-2.95293e-05
-0.000108111
-4.65875e-05
-9.69242e-05
-6.36469e-05
-8.21077e-05
-8.01235e-05
-6.37373e-05
-9.51817e-05
-4.2241e-05
-0.00010753
-1.89598e-05
-0.000113623
-9.0771e-05
-1.47693e-05
8.59122e-05
-3.38387e-05
0.000110922
-5.25048e-05
0.000108898
-6.99878e-05
0.000102172
-8.59388e-05
9.31437e-05
-0.000100095
8.22002e-05
-0.000112246
6.95763e-05
-0.000122215
5.54641e-05
-0.000129837
4.00128e-05
-0.000134934
2.33324e-05
-0.0001373
5.5227e-06
-0.000136667
-1.34959e-05
-0.000132688
-3.35087e-05
-0.000124979
-5.42959e-05
-0.000113142
-7.54839e-05
-9.68485e-05
-9.64174e-05
-7.59703e-05
-0.00011606
-5.08248e-05
-0.000132676
-2.30297e-05
-0.000141418
-0.000113801
-1.66902e-05
0.000102602
-3.82431e-05
0.000132475
-5.92729e-05
0.000129928
-7.89053e-05
0.000121805
-9.67754e-05
0.000111014
-0.000112632
9.80568e-05
-0.000126295
8.32395e-05
-0.000137627
6.67962e-05
-0.000146501
4.88864e-05
-0.000152765
2.9597e-05
-0.000156213
8.96985e-06
-0.000156548
-1.316e-05
-0.000153311
-3.67466e-05
-0.000145936
-6.167e-05
-0.000133748
-8.76727e-05
-0.00011605
-0.000114115
-9.23377e-05
-0.000139772
-6.26061e-05
-0.000162407
-2.88033e-05
-0.000175221
-0.000142604
-1.90269e-05
0.000121629
-4.3576e-05
0.000157024
-6.74112e-05
0.000153763
-8.95412e-05
0.000143935
-0.000109593
0.000131066
-0.000127345
0.000115809
-0.000142673
9.85674e-05
-0.00015551
7.9633e-05
-0.0001658
5.91764e-05
-0.000173452
3.72495e-05
-0.00017829
1.38079e-05
-0.000180021
-1.14289e-05
-0.000178073
-3.86949e-05
-0.000171675
-6.80679e-05
-0.000159776
-9.95713e-05
-0.000141115
-0.000132777
-0.000114485
-0.000166402
-7.91234e-05
-0.000197769
-3.73298e-05
-0.000217015
-0.000179934
-2.18894e-05
0.000143519
-5.00547e-05
0.000185189
-7.7201e-05
0.000180909
-0.000102193
0.000168926
-0.000124668
0.00015354
-0.00014446
0.000135601
-0.000161542
0.000115649
-0.000175959
9.405e-05
-0.000187775
7.09927e-05
-0.00019701
4.64846e-05
-0.000203571
2.03689e-05
-0.000207228
-7.77214e-06
-0.000207332
-3.85908e-05
-0.000202916
-7.24832e-05
-0.000192482
-0.000110006
-0.000173962
-0.000151296
-0.000144948
-0.000195417
-0.000102988
-0.000239728
-5.06903e-05
-0.000269313
-0.000230624
-2.54563e-05
0.000168975
-5.80101e-05
0.000217743
-8.90515e-05
0.000211951
-0.000117274
0.000197149
-0.000142368
0.000178635
-0.000164263
0.000157496
-0.00018308
0.000134465
-0.000199038
0.000110008
-0.000212385
8.434e-05
-0.000223322
5.74212e-05
-0.000231922
2.89685e-05
-0.000238077
-1.61733e-06
-0.000241232
-3.54356e-05
-0.000240271
-7.34436e-05
-0.000233259
-0.000117018
-0.000217122
-0.000167433
-0.00018764
-0.000224899
-0.000138791
-0.000288577
-7.36335e-05
-0.00033447
-0.000304258
-2.99863e-05
0.000198961
-6.79034e-05
0.00025566
-0.000103535
0.000247582
-0.000135362
0.000228976
-0.000163197
0.00020647
-0.000187122
0.000181421
-0.000207488
0.000154831
-0.000224768
0.000127288
-0.00023947
9.90422e-05
-0.000252055
7.00054e-05
-0.000262854
3.97679e-05
-0.000272154
7.68294e-06
-0.000279518
-2.80724e-05
-0.000283964
-6.89971e-05
-0.000283388
-0.000117594
-0.000273657
-0.000177165
-0.00024826
-0.000250295
-0.000194445
-0.000342393
-0.00011497
-0.000413945
-0.000419228
-3.63858e-05
0.000235347
-8.0876e-05
0.00030015
-0.000121682
0.000288388
-0.000157327
0.000264621
-0.000187857
0.000237
-0.000213524
0.000207088
-0.000235009
0.000176317
-0.000253131
0.000145411
-0.000268757
0.000114668
-0.000282731
8.39785e-05
-0.000295908
5.29453e-05
-0.000308451
2.02263e-05
-0.000320885
-1.56383e-05
-0.000333076
-5.68065e-05
-0.000343168
-0.000107502
-0.000346263
-0.000174069
-0.000334914
-0.000261645
-0.000283406
-0.0003939
-0.000194489
-0.000502862
-0.000613717
-4.16367e-05
0.000276984
-9.58175e-05
0.000354331
-0.000143774
0.000336344
-0.000184158
0.000305006
-0.000217324
0.000270166
-0.000244142
0.000233906
-0.00026595
0.000198125
-0.000284055
0.000163515
-0.00029972
0.000130334
-0.000314089
9.83478e-05
-0.000328217
6.70727e-05
-0.00034381
3.58195e-05
-0.000363259
3.81103e-06
-0.000385429
-3.46366e-05
-0.000411932
-8.09996e-05
-0.000437316
-0.000148685
-0.000459293
-0.000239668
-0.000429715
-0.000423478
-0.000345006
-0.000587571
-0.000958722
-6.77236e-05
0.000344707
-0.000124019
0.000410627
-0.000176016
0.000388341
-0.000217773
0.000346763
-0.00025213
0.000304523
-0.0002792
0.000260976
-0.000300447
0.000219372
-0.000317499
0.000180567
-0.000332259
0.000145095
-0.000346761
0.000112849
-0.000363108
8.34201e-05
-0.000382895
5.56064e-05
-0.000407523
2.8439e-05
-0.000439802
-2.35757e-06
-0.000486184
-3.46178e-05
-0.000543403
-9.14671e-05
-0.000614667
-0.000168403
-0.000637431
-0.000400715
-0.00056007
-0.000664932
-0.00151879
-4.29838e-05
0.000387691
-0.000139846
0.000507489
-0.000208876
0.000457371
-0.000262703
0.000400589
-0.000299576
0.000341397
-0.0003242
0.000285599
-0.000340854
0.000236026
-0.000352903
0.000192616
-0.000362824
0.000155016
-0.000372304
0.000122329
-0.000383446
9.45613e-05
-0.000397901
7.00617e-05
-0.000421609
5.21475e-05
-0.000458378
3.44114e-05
-0.000524844
3.1848e-05
-0.000620132
3.82045e-06
-0.000772774
-1.57609e-05
-0.000844669
-0.00032882
-0.00070383
-0.000805771
-0.00222262
-0.000138435
0.000526126
-0.000198465
0.00056752
-0.000256029
0.000514934
-0.00030813
0.00045269
-0.000337273
0.000370541
-0.000353979
0.000302304
-0.000362302
0.00024435
-0.000365746
0.000196059
-0.000367518
0.000156789
-0.000369983
0.000124793
-0.000376976
0.000101555
-0.000389498
8.25843e-05
-0.000414863
7.75117e-05
-0.00045226
7.18089e-05
-0.000519491
9.90787e-05
-0.000599624
8.39536e-05
-0.000687902
7.25175e-05
-0.000710064
-0.000306658
-0.000409682
-0.00110615
-0.0026323
-0.000540366
0.00106649
-0.00053067
0.000557824
-0.000483271
0.000467535
-0.000390871
0.00036029
-0.000298431
0.0002781
-0.000210742
0.000214616
-0.000133374
0.000166982
-6.80539e-05
0.000130739
-1.46298e-05
0.000103365
2.85419e-05
8.16218e-05
6.41938e-05
6.59026e-05
9.25172e-05
5.4261e-05
0.000124889
4.51394e-05
0.000150257
4.64418e-05
0.000214752
3.45835e-05
0.000257549
4.11564e-05
0.000392615
-6.25483e-05
0.000413867
-0.00032791
0.000400221
-0.00109251
-0.00223208
0.00106649
0.00162432
0.00209185
0.00245214
0.00273024
0.00294486
0.00311184
0.00324258
0.00334594
0.00342756
0.00349347
0.00354773
0.00359287
0.00363931
0.00367389
0.00371505
0.0036525
0.00332459
0.00223208
)
;

boundaryField
{
    movingWall
    {
        type            calculated;
        value           uniform 0;
    }
    fixedWalls
    {
        type            calculated;
        value           uniform 0;
    }
    frontAndBack
    {
        type            empty;
        value           nonuniform List<scalar> 0();
    }
}


// ************************************************************************* //
