/*--------------------------------*- C++ -*----------------------------------*\
  =========                 |
  \\      /  F ield         | OpenFOAM: The Open Source CFD Toolbox
   \\    /   O peration     | Website:  https://openfoam.org
    \\  /    A nd           | Version:  9
     \\/     M anipulation  |
\*---------------------------------------------------------------------------*/
FoamFile
{
    format      ascii;
    class       volVectorField;
    location    "3";
    object      U;
}
// * * * * * * * * * * * * * * * * * * * * * * * * * * * * * * * * * * * * * //

dimensions      [0 1 -1 0 0 0 0];

internalField   nonuniform List<vector> 
400
(
(-0.000283263 0.000280564 0)
(-0.00105027 0.000381339 0)
(-0.00195754 0.000376825 0)
(-0.00278394 0.000354881 0)
(-0.00355473 0.000324482 0)
(-0.00424624 0.00028658 0)
(-0.00484181 0.000241627 0)
(-0.00532637 0.000190144 0)
(-0.00568631 0.000132766 0)
(-0.00590972 7.02978e-05 0)
(-0.00598672 3.99745e-06 0)
(-0.00590973 -6.58224e-05 0)
(-0.00567423 -0.000136962 0)
(-0.00527977 -0.00020753 0)
(-0.0047305 -0.000275227 0)
(-0.00403588 -0.000337383 0)
(-0.00321149 -0.000391025 0)
(-0.00228779 -0.000432358 0)
(-0.0012462 -0.000448791 0)
(-0.000342928 -0.000340075 0)
(-0.000398009 0.00105292 0)
(-0.00143285 0.00138806 0)
(-0.002632 0.00136779 0)
(-0.00372722 0.00128533 0)
(-0.00474537 0.00117155 0)
(-0.00565556 0.00103035 0)
(-0.00643592 0.000863913 0)
(-0.00706712 0.000674605 0)
(-0.00753196 0.000465086 0)
(-0.0078155 0.000238399 0)
(-0.0079068 -2.22415e-06 0)
(-0.00779661 -0.000252341 0)
(-0.00747912 -0.000505922 0)
(-0.0069551 -0.000756461 0)
(-0.00623033 -0.000996055 0)
(-0.00531729 -0.0012155 0)
(-0.00423626 -0.0014045 0)
(-0.00302565 -0.00154979 0)
(-0.00166686 -0.00160828 0)
(-0.000469464 -0.00124714 0)
(-0.000424047 0.00201889 0)
(-0.00152624 0.00262246 0)
(-0.00280244 0.00258042 0)
(-0.00396719 0.0024225 0)
(-0.00505 0.00220529 0)
(-0.00601845 0.00193649 0)
(-0.00684979 0.00162065 0)
(-0.00752394 0.00126256 0)
(-0.00802308 0.000867426 0)
(-0.00833221 0.00044102 0)
(-0.00843848 -1.02998e-05 0)
(-0.00833092 -0.000478462 0)
(-0.00800341 -0.000953233 0)
(-0.00745524 -0.00142245 0)
(-0.00669065 -0.00187155 0)
(-0.005721 -0.00228349 0)
(-0.00456626 -0.00263898 0)
(-0.00326699 -0.00291293 0)
(-0.0018027 -0.00302583 0)
(-0.000508371 -0.00237536 0)
(-0.000448891 0.0029969 0)
(-0.00161802 0.00387906 0)
(-0.00297297 0.00381483 0)
(-0.00420911 0.00358073 0)
(-0.00535923 0.00325964 0)
(-0.00638961 0.00286301 0)
(-0.00727685 0.00239772 0)
(-0.00800041 0.00187083 0)
(-0.00854185 0.00128981 0)
(-0.00888498 0.000662785 0)
(-0.00901657 -7.14172e-07 0)
(-0.00892366 -0.000690121 0)
(-0.00859655 -0.00139181 0)
(-0.00803204 -0.00208827 0)
(-0.00723147 -0.00275811 0)
(-0.00620347 -0.00337591 0)
(-0.00496633 -0.00391223 0)
(-0.00356263 -0.00432825 0)
(-0.00197001 -0.00450447 0)
(-0.000556201 -0.00355081 0)
(-0.000482866 0.00404344 0)
(-0.00174281 0.00522526 0)
(-0.00320439 0.00513724 0)
(-0.00453719 0.00482215 0)
(-0.00577826 0.00439111 0)
(-0.0068922 0.00385978 0)
(-0.00785501 0.0032376 0)
(-0.00864573 0.00253395 0)
(-0.00924543 0.00175838 0)
(-0.00963706 0.000920924 0)
(-0.00980537 3.27292e-05 0)
(-0.00973534 -0.000892511 0)
(-0.00941391 -0.00183867 0)
(-0.00883266 -0.0027838 0)
(-0.00798801 -0.00369976 0)
(-0.0068839 -0.00455183 0)
(-0.00553506 -0.00529838 0)
(-0.00398592 -0.00588312 0)
(-0.0022115 -0.00613912 0)
(-0.000625877 -0.00485499 0)
(-0.000527393 0.00517961 0)
(-0.00190596 0.00668867 0)
(-0.00350638 0.0065745 0)
(-0.00496443 0.00617181 0)
(-0.00632272 0.00562274 0)
(-0.00754392 0.0049478 0)
(-0.00860354 0.00415937 0)
(-0.00948053 0.00326922 0)
(-0.0101558 0.00228874 0)
(-0.0106115 0.0012293 0)
(-0.0108308 0.000103109 0)
(-0.0107958 -0.00107554 0)
(-0.0104886 -0.00228847 0)
(-0.00989376 -0.00351038 0)
(-0.0090001 -0.00470696 0)
(-0.00780354 -0.00583338 0)
(-0.00631188 -0.00683318 0)
(-0.00456982 -0.00762709 0)
(-0.00254806 -0.00798915 0)
(-0.000723991 -0.00633961 0)
(-0.000583502 0.00642992 0)
(-0.0021114 0.00830099 0)
(-0.00388594 0.00815702 0)
(-0.00549979 0.0076576 0)
(-0.00700286 0.00697964 0)
(-0.00835566 0.00614956 0)
(-0.00953367 0.00518326 0)
(-0.0105164 0.0040951 0)
(-0.0112854 0.00289802 0)
(-0.0118227 0.00160389 0)
(-0.0121102 0.000224509 0)
(-0.012127 -0.00122657 0)
(-0.0118488 -0.00273189 0)
(-0.0112512 -0.00426488 0)
(-0.0103112 -0.00578669 0)
(-0.0090115 -0.00724209 0)
(-0.00734725 -0.00855667 0)
(-0.00535898 -0.00962066 0)
(-0.00300967 -0.0101306 0)
(-0.000860547 -0.00807334 0)
(-0.000652648 0.00782217 0)
(-0.00236443 0.0100981 0)
(-0.00435234 0.00991851 0)
(-0.00615488 0.00930973 0)
(-0.00783143 0.00848835 0)
(-0.00934037 0.00748829 0)
(-0.0106581 0.00632995 0)
(-0.0117658 0.00503069 0)
(-0.012647 0.00360472 0)
(-0.013285 0.00206334 0)
(-0.0136613 0.000416169 0)
(-0.0137523 -0.00132657 0)
(-0.0135269 -0.00315163 0)
(-0.0129486 -0.00503506 0)
(-0.0119775 -0.00693706 0)
(-0.0105753 -0.00879389 0)
(-0.00871453 -0.0105102 0)
(-0.00642132 -0.0119362 0)
(-0.0036447 -0.0126611 0)
(-0.00105282 -0.0101501 0)
(-0.000737023 0.00938799 0)
(-0.00267268 0.0121204 0)
(-0.00491848 0.0118961 0)
(-0.0069454 0.0111602 0)
(-0.00882507 0.0101759 0)
(-0.0105142 0.00898679 0)
(-0.0119914 0.00761931 0)
(-0.0132418 0.00609454 0)
(-0.0142528 0.00442777 0)
(-0.0150113 0.00262857 0)
(-0.0155001 0.000702058 0)
(-0.0156948 -0.00134839 0)
(-0.0155573 -0.00351881 0)
(-0.0150367 -0.00579407 0)
(-0.0140702 -0.00814037 0)
(-0.0125871 -0.0104914 0)
(-0.0105209 -0.0127311 0)
(-0.00786191 -0.0146597 0)
(-0.00453419 -0.0157088 0)
(-0.00133236 -0.012706 0)
(-0.00084006 0.0111647 0)
(-0.00304734 0.0144148 0)
(-0.00560267 0.0141312 0)
(-0.00789293 0.0132432 0)
(-0.0100058 0.0120694 0)
(-0.0118971 0.0106663 0)
(-0.0135505 0.00906893 0)
(-0.0149575 0.00730309 0)
(-0.0161131 0.00538521 0)
(-0.0170109 0.0033219 0)
(-0.0176383 0.0011111 0)
(-0.0179732 -0.00125512 0)
(-0.0179726 -0.00378897 0)
(-0.0175702 -0.00649347 0)
(-0.0166751 -0.0093529 0)
(-0.0151694 -0.0123116 0)
(-0.0129236 -0.0152413 0)
(-0.00984614 -0.0178899 0)
(-0.00582003 -0.0194441 0)
(-0.00176052 -0.015951 0)
(-0.000967392 0.0131987 0)
(-0.00350532 0.0170377 0)
(-0.00643126 0.0166713 0)
(-0.00902764 0.0155947 0)
(-0.0114029 0.0141946 0)
(-0.0135148 0.0125448 0)
(-0.0153548 0.0106917 0)
(-0.0169257 0.00866797 0)
(-0.0182343 0.00649147 0)
(-0.0192856 0.00416474 0)
(-0.0200773 0.00167571 0)
(-0.020595 -0.00100019 0)
(-0.0207958 -0.00389803 0)
(-0.0206007 -0.00705404 0)
(-0.0198886 -0.0104896 0)
(-0.0184799 -0.0141843 0)
(-0.0161531 -0.0180226 0)
(-0.0126395 -0.0217299 0)
(-0.00776328 -0.0240916 0)
(-0.00246444 -0.0202339 0)
(-0.00112889 0.0155451 0)
(-0.00407344 0.0200544 0)
(-0.00744335 0.0195696 0)
(-0.0103926 0.0182519 0)
(-0.0130568 0.0165746 0)
(-0.0154003 0.0146337 0)
(-0.0174276 0.0124921 0)
(-0.0191581 0.0101919 0)
(-0.0206167 0.00775318 0)
(-0.0218269 0.00517394 0)
(-0.0228035 0.00243033 0)
(-0.0235472 -0.000523094 0)
(-0.0240267 -0.00375739 0)
(-0.0241619 -0.00735566 0)
(-0.0238057 -0.0114031 0)
(-0.0227088 -0.0159583 0)
(-0.0205411 -0.0209705 0)
(-0.0166742 -0.0262445 0)
(-0.0108677 -0.0298958 0)
(-0.00372408 -0.0262018 0)
(-0.00134014 0.0183228 0)
(-0.00478949 0.023574 0)
(-0.00869333 0.022899 0)
(-0.012048 0.0212551 0)
(-0.0150224 0.019227 0)
(-0.0175977 0.0169338 0)
(-0.0197971 0.0144612 0)
(-0.0216651 0.0118629 0)
(-0.0232526 0.00916259 0)
(-0.0246089 0.00635334 0)
(-0.0257747 0.00339583 0)
(-0.0267831 0.000213972 0)
(-0.0276288 -0.00328326 0)
(-0.028247 -0.00724221 0)
(-0.028492 -0.0118589 0)
(-0.0280579 -0.0173352 0)
(-0.0265357 -0.023784 0)
(-0.0226209 -0.0313573 0)
(-0.0161802 -0.0370328 0)
(-0.00625768 -0.0351016 0)
(-0.00166212 0.0213213 0)
(-0.00577324 0.0275995 0)
(-0.0102907 0.0266877 0)
(-0.0140924 0.0246371 0)
(-0.0173793 0.022162 0)
(-0.0201667 0.0194312 0)
(-0.0224991 0.0165703 0)
(-0.0244572 0.013647 0)
(-0.0261267 0.0106899 0)
(-0.0275943 0.00768981 0)
(-0.0289437 0.00460551 0)
(-0.0302273 0.00136002 0)
(-0.0314844 -0.0021931 0)
(-0.0327396 -0.00634308 0)
(-0.0339009 -0.0113701 0)
(-0.0346551 -0.0177286 0)
(-0.0346886 -0.0257964 0)
(-0.0315207 -0.036791 0)
(-0.0257875 -0.0454649 0)
(-0.0117925 -0.0493362 0)
(-0.00183837 0.0261562 0)
(-0.00671854 0.0325223 0)
(-0.0122484 0.031124 0)
(-0.0166034 0.0283269 0)
(-0.0202295 0.025277 0)
(-0.0231906 0.0220366 0)
(-0.0255819 0.0187451 0)
(-0.0275458 0.0154752 0)
(-0.0292098 0.0122663 0)
(-0.0306925 0.00910496 0)
(-0.0321027 0.00592068 0)
(-0.0335783 0.00258371 0)
(-0.0353255 -0.00109878 0)
(-0.037414 -0.00536499 0)
(-0.0398612 -0.0105886 0)
(-0.0425041 -0.0175998 0)
(-0.0457062 -0.0269794 0)
(-0.0448059 -0.0418968 0)
(-0.0429269 -0.0545696 0)
(-0.0232192 -0.07318 0)
(-0.00372141 0.0285218 0)
(-0.00988688 0.0391571 0)
(-0.015159 0.0365673 0)
(-0.0199795 0.0333967 0)
(-0.0236717 0.029351 0)
(-0.0267034 0.0251736 0)
(-0.029062 0.0211433 0)
(-0.0309348 0.0173702 0)
(-0.0324928 0.0138843 0)
(-0.0339333 0.0106621 0)
(-0.0354561 0.00765787 0)
(-0.0372353 0.00478321 0)
(-0.0394207 0.00194856 0)
(-0.0422223 -0.0011114 0)
(-0.0461254 -0.00483156 0)
(-0.0510905 -0.0109458 0)
(-0.058877 -0.0191535 0)
(-0.0621006 -0.0406612 0)
(-0.0688635 -0.0599007 0)
(-0.0379418 -0.11663 0)
(-0.000869436 0.0418381 0)
(-0.00831974 0.0410016 0)
(-0.0187513 0.0398072 0)
(-0.0238024 0.0343527 0)
(-0.0284158 0.0302468 0)
(-0.0313633 0.0260059 0)
(-0.033331 0.022007 0)
(-0.0347144 0.0182459 0)
(-0.0357761 0.014774 0)
(-0.0367159 0.0115909 0)
(-0.0377101 0.0086904 0)
(-0.0389385 0.00596784 0)
(-0.040771 0.00338711 0)
(-0.0435765 0.000470571 0)
(-0.0487748 -0.00276214 0)
(-0.0552143 -0.00858507 0)
(-0.0717123 -0.0163717 0)
(-0.0786842 -0.0416259 0)
(-0.0973977 -0.0763732 0)
(-0.0345138 -0.188678 0)
(-0.00592085 0.0329565 0)
(-0.0204626 0.063941 0)
(-0.0205713 0.054111 0)
(-0.0298812 0.0486372 0)
(-0.0324017 0.0403764 0)
(-0.034823 0.0330013 0)
(-0.0358874 0.0266157 0)
(-0.0364036 0.0213033 0)
(-0.0366091 0.0169702 0)
(-0.036779 0.0134322 0)
(-0.0372247 0.0107048 0)
(-0.0380962 0.00852061 0)
(-0.0399824 0.00753977 0)
(-0.0426762 0.00694575 0)
(-0.048575 0.00973664 0)
(-0.0536597 0.00955089 0)
(-0.0699187 0.0139334 0)
(-0.0631484 -0.0213872 0)
(-0.0874342 -0.0811921 0)
(0.0142412 -0.255903 0)
(-0.0669243 0.0787457 0)
(-0.0456139 0.0445211 0)
(-0.0568145 0.0450069 0)
(-0.0422661 0.0376125 0)
(-0.0345996 0.0302205 0)
(-0.0250339 0.0245667 0)
(-0.0168011 0.0199986 0)
(-0.00969555 0.0161846 0)
(-0.00385886 0.0130654 0)
(0.00102805 0.0104875 0)
(0.00469678 0.00875252 0)
(0.00829347 0.00719113 0)
(0.0103085 0.0071681 0)
(0.0150666 0.00642544 0)
(0.0145113 0.00867074 0)
(0.0301031 0.00552017 0)
(0.0181628 -0.00184929 0)
(0.0638832 -0.0462384 0)
(0.0110375 -0.155937 0)
(0.0799089 -0.29726 0)
(0.0956462 0.123317 0)
(0.12823 0.0718719 0)
(0.187481 0.0521008 0)
(0.230352 0.0379897 0)
(0.261125 0.0281769 0)
(0.285008 0.0205598 0)
(0.303849 0.0150544 0)
(0.318789 0.0111886 0)
(0.329828 0.00852012 0)
(0.339852 0.00655093 0)
(0.345045 0.00498406 0)
(0.355049 0.00422633 0)
(0.352419 0.00232862 0)
(0.369509 0.0035622 0)
(0.353546 -0.00104615 0)
(0.384731 0.00383186 0)
(0.346693 -0.00824552 0)
(0.376908 -0.0118985 0)
(0.270951 -0.0417656 0)
(0.207143 -0.112363 0)
)
;

boundaryField
{
    movingWall
    {
        type            fixedValue;
        value           uniform (1 0 0);
    }
    fixedWalls
    {
        type            noSlip;
    }
    frontAndBack
    {
        type            empty;
    }
}


// ************************************************************************* //
