/*--------------------------------*- C++ -*----------------------------------*\
  =========                 |
  \\      /  F ield         | OpenFOAM: The Open Source CFD Toolbox
   \\    /   O peration     | Website:  https://openfoam.org
    \\  /    A nd           | Version:  9
     \\/     M anipulation  |
\*---------------------------------------------------------------------------*/
FoamFile
{
    format      ascii;
    class       volScalarField;
    location    "10";
    object      p;
}
// * * * * * * * * * * * * * * * * * * * * * * * * * * * * * * * * * * * * * //

dimensions      [0 2 -2 0 0 0 0];

internalField   nonuniform List<scalar> 
8000
(
2.24851e-06
6.96702e-06
5.71808e-05
0.000140612
0.000263712
0.00042933
0.000641959
0.000906822
0.00122963
0.00161605
0.00207066
0.00259568
0.00318901
0.0038412
0.00453207
0.00522637
0.00587431
0.00640336
0.00677217
0.00686479
-4.76361e-06
-2.53832e-07
5.02549e-05
0.000132267
0.000252855
0.000414826
0.000622689
0.000881652
0.00119747
0.00157609
0.00202276
0.00254076
0.00312937
0.00378053
0.0044757
0.00518201
0.00585039
0.00640283
0.00679269
0.00688682
-7.22314e-05
-7.00777e-05
-2.26586e-05
5.41486e-05
0.000167652
0.000320549
0.000517422
0.000763713
0.0010657
0.00143022
0.00186423
0.00237337
0.00296045
0.00362264
0.00434605
0.00509992
0.00583216
0.00645479
0.00690207
0.00701374
-0.000185147
-0.000185154
-0.000142576
-7.38042e-05
2.85998e-05
0.000167192
0.000346606
0.000572533
0.000851866
0.00119273
0.00160429
0.00209618
0.00267646
0.00334883
0.00410688
0.00492489
0.00575517
0.00649445
0.00704155
0.00719691
-0.000346247
-0.000348962
-0.000313166
-0.000255342
-0.000168086
-4.91138e-05
0.00010606
0.000303154
0.000549565
0.000854613
0.00122982
0.00168899
0.00224743
0.0029188
0.00370974
0.00460848
0.00556136
0.00646711
0.00716832
0.0074137
-0.000552349
-0.000558303
-0.000531055
-0.000486989
-0.000418941
-0.000325118
-0.000201525
-4.28958e-05
0.000157942
0.00041079
0.000728747
0.001129
0.00163348
0.00226802
0.00305625
0.00400838
0.00509758
0.00622089
0.00714367
0.00755724
-0.000798759
-0.000808413
-0.000791228
-0.000763455
-0.000718435
-0.000655197
-0.000570772
-0.000461091
-0.000320301
-0.000139894
9.25943e-05
0.000395281
0.00079354
0.00132206
0.00202477
0.00294302
0.0040922
0.00540999
0.0065714
0.00729719
-0.00107983
-0.00109351
-0.00108749
-0.00107797
-0.00105912
-0.00103119
-0.000992942
-0.000942485
-0.000876767
-0.000790787
-0.000676385
-0.000520324
-0.000301297
1.40651e-05
0.000474591
0.00114296
0.00207521
0.00331407
0.00454978
0.00567012
-0.00138914
-0.00140697
-0.00141252
-0.00142229
-0.00143148
-0.00144206
-0.00145521
-0.00147237
-0.00149504
-0.00152454
-0.00156142
-0.00160427
-0.00164824
-0.00168144
-0.00168466
-0.0016237
-0.00145222
-0.000954244
0.000146493
0.0024708
-0.00171981
-0.00174155
-0.00175799
-0.00178659
-0.00182357
-0.00187332
-0.0019398
-0.0020286
-0.0021472
-0.0023056
-0.00251749
-0.00280051
-0.00318014
-0.00368539
-0.00435444
-0.00513764
-0.00587759
-0.00519153
-0.00176172
0.000645174
-0.00206571
-0.00209128
-0.00211697
-0.00216272
-0.00222478
-0.00231101
-0.00242823
-0.00258676
-0.00280092
-0.00309066
-0.00348632
-0.00402611
-0.00477592
-0.005786
-0.00715654
-0.00861438
-0.0098204
-0.00737705
-0.00207977
-0.000560722
-0.00242004
-0.002447
-0.00247662
-0.00253372
-0.00261459
-0.0027311
-0.00289136
-0.00310992
-0.00340729
-0.0038104
-0.00436731
-0.0051281
-0.00621584
-0.00764363
-0.00971329
-0.0117161
-0.0140811
-0.0114567
-0.0079087
-0.00425989
-0.00278538
-0.00281761
-0.00284769
-0.00291619
-0.00300669
-0.00314188
-0.00332897
-0.00358772
-0.0039443
-0.00442744
-0.00510104
-0.00602275
-0.00738076
-0.0091111
-0.0119437
-0.0144489
-0.019814
-0.0183063
-0.0168259
-0.00954021
-0.0031515
-0.00316989
-0.00318193
-0.00322997
-0.00331523
-0.0034578
-0.00366467
-0.0039513
-0.00434644
-0.00487547
-0.0056127
-0.00658884
-0.00808011
-0.00989261
-0.0131791
-0.0158978
-0.0234196
-0.0223946
-0.0211219
-0.0129716
-0.00352497
-0.00358958
-0.00358031
-0.0036657
-0.00372777
-0.00385943
-0.00404093
-0.0043046
-0.00468251
-0.0051946
-0.00591638
-0.00683826
-0.00828661
-0.00993451
-0.013001
-0.0155935
-0.0215186
-0.0208329
-0.0199648
-0.0120819
-0.00406968
-0.00393276
-0.00385747
-0.00378075
-0.00380271
-0.00390864
-0.00410105
-0.00438202
-0.00476912
-0.00526712
-0.00594447
-0.00675882
-0.0080094
-0.00926725
-0.0115855
-0.0130441
-0.0163887
-0.0147824
-0.0155701
-0.00656241
-0.00417607
-0.00456111
-0.00438128
-0.0045588
-0.00447338
-0.0045371
-0.00460728
-0.00477978
-0.00505614
-0.00544192
-0.00600233
-0.00665803
-0.00770226
-0.00860396
-0.0104008
-0.0109281
-0.0128588
-0.0100093
-0.010483
0.00318243
-0.00618627
-0.0047625
-0.00455665
-0.00405108
-0.00394402
-0.00396125
-0.00412871
-0.00437393
-0.00472772
-0.00513021
-0.00568794
-0.00624889
-0.0070996
-0.00769944
-0.00882348
-0.00869551
-0.00948529
-0.00601258
-0.00412288
0.0199821
-0.00453376
-0.00687364
-0.00578918
-0.00606607
-0.00552023
-0.00539101
-0.00522655
-0.00522097
-0.00535123
-0.00557618
-0.00598896
-0.00645412
-0.007288
-0.00795009
-0.00946731
-0.00954792
-0.0108406
-0.00457589
0.00266056
0.0457592
-0.017888
-0.00526041
-0.00446541
-0.00386089
-0.0036134
-0.00359163
-0.00380931
-0.00402825
-0.00442316
-0.00473759
-0.00534804
-0.00578008
-0.00662001
-0.00693201
-0.00752615
-0.00560407
-0.00153336
0.0157667
0.046026
0.120298
7.67913e-06
6.78189e-06
5.66133e-05
0.000139652
0.000262889
0.000428846
0.000642024
0.000907739
0.00123187
0.00162032
0.00207808
0.00260787
0.00320825
0.00387035
0.0045741
0.00528442
0.00594971
0.00649216
0.00686808
0.00694507
7.64778e-06
6.63571e-06
5.76056e-05
0.000139511
0.000260276
0.000422434
0.000630513
0.000889773
0.0012061
0.00158562
0.00203386
0.00255471
0.00314828
0.00380718
0.00451369
0.00523638
0.00592262
0.00649019
0.00688949
0.006969
-5.76673e-05
-6.17041e-05
-1.37067e-05
6.30017e-05
0.00017669
0.000329756
0.000526798
0.000773289
0.00107562
0.00144094
0.00187649
0.00238862
0.00298114
0.00365266
0.0043906
0.00516542
0.0059231
0.00656978
0.00703324
0.00713146
-0.000168945
-0.000175434
-0.000132189
-6.34844e-05
3.91488e-05
0.000177959
0.000357593
0.000583773
0.0008635
0.00120517
0.00161853
0.00211393
0.00270091
0.00338495
0.00416079
0.00501059
0.00587936
0.00666187
0.00724505
0.00740265
-0.000329483
-0.000338874
-0.000302388
-0.000244598
-0.000157029
-3.77012e-05
0.000117894
0.000315513
0.000562672
0.000868974
0.00124655
0.00171028
0.00227737
0.00296455
0.0037827
0.00471913
0.00573797
0.0067289
0.00751187
0.00782137
-0.000535529
-0.000548315
-0.000520388
-0.000476331
-0.000407886
-0.000313551
-0.000189291
-2.97815e-05
0.000172296
0.00042705
0.000748205
0.00115423
0.00166951
0.00232436
0.00314904
0.00415818
0.00534963
0.00663464
0.00775958
0.00839523
-0.000782139
-0.000798765
-0.000780944
-0.000753183
-0.00070772
-0.000643846
-0.000558534
-0.000447637
-0.000305151
-0.000122261
0.000114144
0.000423406
0.000833426
0.0013842
0.00212934
0.00312938
0.00441426
0.00604064
0.007716
0.00900213
-0.00106358
-0.00108438
-0.0010778
-0.00106835
-0.00104908
-0.00102047
-0.000981196
-0.000929274
-0.000861512
-0.00077269
-0.00065426
-0.000492241
-0.000263691
6.80082e-05
0.000557125
0.00127879
0.00236871
0.00399046
0.00597608
0.00797676
-0.00137337
-0.0013985
-0.00140367
-0.00141363
-0.00142252
-0.00143248
-0.00144462
-0.00146025
-0.00148083
-0.00150768
-0.00154159
-0.00158203
-0.00162627
-0.00166935
-0.00171298
-0.00175553
-0.00166389
-0.000777033
0.00125649
0.0040756
-0.00170451
-0.00173364
-0.00174984
-0.00177874
-0.00181567
-0.001865
-0.00193062
-0.00201801
-0.00213461
-0.00229081
-0.00250133
-0.00278808
-0.00318647
-0.00375619
-0.00461328
-0.00584553
-0.00732945
-0.00670523
-0.00369659
-0.000243835
-0.00205109
-0.00208461
-0.00211059
-0.00215702
-0.00221936
-0.00230522
-0.00242167
-0.00257904
-0.00279158
-0.00308049
-0.00347785
-0.00403218
-0.00482674
-0.00598183
-0.00772409
-0.0099934
-0.0126776
-0.011704
-0.00773732
-0.00388536
-0.00240464
-0.00243936
-0.00246928
-0.00252664
-0.00260848
-0.00272517
-0.00288545
-0.00310322
-0.00339888
-0.00380207
-0.00436105
-0.00514281
-0.00629044
-0.00793518
-0.010496
-0.0135956
-0.0180864
-0.0170511
-0.0147886
-0.00913731
-0.00277068
-0.00281378
-0.00284534
-0.00291521
-0.00300733
-0.00314232
-0.00332887
-0.00358625
-0.00393936
-0.00442276
-0.00509961
-0.00603283
-0.00746242
-0.00935789
-0.0128442
-0.0162386
-0.0237475
-0.0225901
-0.0225316
-0.0145023
-0.0031292
-0.00315796
-0.00317128
-0.00321877
-0.00330706
-0.00345035
-0.00365833
-0.00394603
-0.00433814
-0.00486501
-0.00560482
-0.00656265
-0.00815884
-0.00995127
-0.0141316
-0.0168793
-0.0257003
-0.0245282
-0.0247805
-0.0168964
-0.0034955
-0.00358273
-0.00357696
-0.00366564
-0.00373226
-0.00386226
-0.0040426
-0.00430615
-0.00467733
-0.00518035
-0.0059141
-0.00677033
-0.00828448
-0.00993072
-0.0134105
-0.0161195
-0.0225366
-0.0217331
-0.0228647
-0.0145534
-0.0040192
-0.00390816
-0.00383425
-0.00374885
-0.00377805
-0.00388697
-0.00408208
-0.00436431
-0.00474886
-0.00523169
-0.00590835
-0.0066886
-0.00794477
-0.00920008
-0.0117041
-0.0132891
-0.0170553
-0.0152416
-0.0177084
-0.00771062
-0.00395334
-0.00443807
-0.00433812
-0.00454284
-0.0044711
-0.00453103
-0.00459832
-0.00476629
-0.00503288
-0.00540009
-0.00594527
-0.00656956
-0.00759131
-0.0084731
-0.0103441
-0.0110554
-0.0131793
-0.0105143
-0.0119559
0.00279584
-0.00607171
-0.00478365
-0.0045315
-0.00390172
-0.00381465
-0.00385397
-0.00403484
-0.00429942
-0.00465566
-0.0050526
-0.00558993
-0.00613936
-0.00693466
-0.00756198
-0.00862276
-0.00873869
-0.00924409
-0.00661915
-0.00506898
0.020119
-0.00304518
-0.00617651
-0.00538208
-0.00583331
-0.00533909
-0.00529165
-0.00515127
-0.00518557
-0.00529523
-0.00552303
-0.00589357
-0.00633948
-0.00707754
-0.00780743
-0.00923297
-0.00989348
-0.0115488
-0.00633669
0.0015145
0.0476371
-0.0172765
-0.00454438
-0.00364062
-0.00332524
-0.0032353
-0.00327881
-0.00353022
-0.00380026
-0.00418551
-0.00454361
-0.00508456
-0.00558073
-0.00626505
-0.00677471
-0.00722203
-0.00568872
-0.00170603
0.0159312
0.0518083
0.135303
1.64921e-05
1.35366e-05
6.34194e-05
0.000146567
0.000270361
0.000437246
0.000651847
0.000919666
0.00124685
0.00163973
0.00210383
0.00264255
0.00325521
0.00393363
0.00465823
0.00539298
0.00608369
0.00664671
0.00703522
0.00710435
1.98247e-05
1.66229e-05
6.79472e-05
0.000149979
0.000271209
0.000434106
0.000643331
0.000904316
0.0012232
0.0016065
0.00206041
0.00258954
0.00319486
0.00386987
0.00459798
0.00534694
0.0060618
0.0066537
0.00706873
0.00714012
-4.37868e-05
-5.03155e-05
-1.90374e-06
7.48945e-05
0.000188989
0.000342711
0.000540798
0.000788913
0.00109373
0.00146281
0.00190414
0.00242505
0.00303064
0.00372097
0.00448502
0.00529331
0.00608919
0.0067708
0.00725798
0.00734737
-0.000153565
-0.000162699
-0.000118999
-5.02325e-05
5.27693e-05
0.000192183
0.00037281
0.000600575
0.000882798
0.00122838
0.00164784
0.00215285
0.00275477
0.00346133
0.00427073
0.00516482
0.00608826
0.00692676
0.00755194
0.00769917
-0.000313176
-0.000325332
-0.000288384
-0.000230554
-0.000142632
-2.27098e-05
0.000133884
0.000333124
0.000582875
0.00089332
0.00127753
0.00175191
0.00233609
0.00304998
0.00390601
0.00490612
0.00600691
0.00709204
0.00795551
0.00825698
-0.000518559
-0.000534243
-0.000505866
-0.000461806
-0.000393042
-0.000298142
-0.000172909
-1.1806e-05
0.000192845
0.000451752
0.000779647
0.00119676
0.00173055
0.00241659
0.00329436
0.00438369
0.00568805
0.00713244
0.0084223
0.00903435
-0.000764603
-0.000784288
-0.000766053
-0.000738362
-0.000692667
-0.000628333
-0.000542185
-0.000429898
-0.000285173
-9.86885e-05
0.000143573
0.00046256
0.000889157
0.00146895
0.00226432
0.00335136
0.00479542
0.00669136
0.00866003
0.00977121
-0.00104546
-0.00106952
-0.0010626
-0.00105335
-0.00103401
-0.00100516
-0.000965341
-0.000912483
-0.000843234
-0.000752145
-0.00063028
-0.000462922
-0.000225545
0.000121357
0.000635798
0.00139796
0.00260854
0.00456399
0.0069449
0.00885864
-0.00135455
-0.0013832
-0.00138816
-0.00139851
-0.00140758
-0.00141763
-0.0014297
-0.00144514
-0.00146548
-0.00149232
-0.00152705
-0.00157046
-0.00162215
-0.00168366
-0.00177365
-0.00189961
-0.00178512
-0.000353967
0.00237479
0.00536129
-0.0016846
-0.00171754
-0.00173364
-0.00176316
-0.00180063
-0.00185048
-0.00191663
-0.00200469
-0.00212248
-0.00228125
-0.00249787
-0.00279851
-0.00322747
-0.00386673
-0.00487643
-0.00634479
-0.00797418
-0.00693229
-0.00348963
0.000254943
-0.00202968
-0.00206755
-0.00209374
-0.00214114
-0.00220447
-0.00229131
-0.00240879
-0.00256762
-0.00278276
-0.00307685
-0.00348515
-0.00406369
-0.00491039
-0.0061811
-0.0081765
-0.010874
-0.0140658
-0.013385
-0.0103765
-0.0055729
-0.00238005
-0.00241926
-0.00244955
-0.00250803
-0.00259137
-0.00270959
-0.00287163
-0.00309142
-0.00339012
-0.00379928
-0.00436977
-0.00517906
-0.00638496
-0.00816976
-0.0110228
-0.014598
-0.019737
-0.0195788
-0.0179837
-0.0114369
-0.00274206
-0.00279039
-0.00282272
-0.00289423
-0.00298848
-0.00312533
-0.00331385
-0.00357327
-0.00392855
-0.00441671
-0.00510001
-0.00605465
-0.00751869
-0.00951896
-0.0131955
-0.0168346
-0.0243131
-0.0239682
-0.0230193
-0.0158923
-0.00309123
-0.00312664
-0.00314122
-0.00319017
-0.00328113
-0.00342641
-0.00363658
-0.0039262
-0.00431867
-0.00484755
-0.00558352
-0.00655803
-0.008136
-0.00998905
-0.0140199
-0.0170189
-0.0248076
-0.0239528
-0.0238782
-0.017041
-0.00344162
-0.00353775
-0.00353492
-0.00362603
-0.00369755
-0.00383021
-0.00401292
-0.00427773
-0.0046467
-0.00514905
-0.00586158
-0.00672577
-0.00823195
-0.00983949
-0.0132105
-0.0157499
-0.0211172
-0.0202182
-0.0209324
-0.0138888
-0.00395624
-0.00385615
-0.00378248
-0.00369534
-0.00372812
-0.0038391
-0.00403623
-0.00431969
-0.0047007
-0.0051835
-0.00586011
-0.00659725
-0.00783106
-0.00906952
-0.0114168
-0.0128871
-0.0158588
-0.014016
-0.0156079
-0.00722801
-0.00378216
-0.00430392
-0.00423586
-0.0044503
-0.00439178
-0.00445563
-0.00452773
-0.00469797
-0.00496121
-0.00532517
-0.00586341
-0.00647084
-0.00744661
-0.00834738
-0.0100953
-0.0109052
-0.0125712
-0.0100611
-0.0103538
0.00292012
-0.00601417
-0.00475615
-0.00444531
-0.00378366
-0.00369128
-0.0037335
-0.0039175
-0.0041918
-0.0045446
-0.00494853
-0.005471
-0.00601781
-0.00675278
-0.00740163
-0.00832668
-0.00854824
-0.00872571
-0.00654923
-0.00392389
0.0203602
-0.00258142
-0.00578505
-0.00509869
-0.00557676
-0.00510419
-0.00508436
-0.00495955
-0.00501017
-0.00512662
-0.00535385
-0.00571862
-0.00616236
-0.00681934
-0.00762216
-0.00891989
-0.00974942
-0.0114059
-0.00663901
0.00192146
0.0481132
-0.0171605
-0.00430355
-0.0033383
-0.00309773
-0.00301392
-0.00306962
-0.00331702
-0.00361243
-0.00397994
-0.00436331
-0.00485835
-0.00536984
-0.00597588
-0.00650317
-0.00692159
-0.00546344
-0.00144049
0.0161747
0.0531027
0.13744
2.61822e-05
2.21285e-05
7.21794e-05
0.000155642
0.000280262
0.000448479
0.00066508
0.000935812
0.00126718
0.00166599
0.00213843
0.00268865
0.00331674
0.00401525
0.00476479
0.0055283
0.00624873
0.00683615
0.00724035
0.00730382
3.13847e-05
2.70543e-05
7.87003e-05
0.000161075
0.000283088
0.000447206
0.000658261
0.000921923
0.00124468
0.00163354
0.00209539
0.0026357
0.00325624
0.00395149
0.00470594
0.00548599
0.00623397
0.00685401
0.00728768
0.00735251
-3.10541e-05
-3.88522e-05
9.90925e-06
8.70258e-05
0.000201867
0.000356755
0.000556606
0.000807332
0.00111599
0.00149068
0.00194019
0.00247291
0.00309534
0.00380892
0.00460417
0.00545099
0.00628985
0.00700993
0.00752363
0.00760263
-0.00013969
-0.000150183
-0.000106117
-3.70592e-05
6.66503e-05
0.000207176
0.000389506
0.000619831
0.000905885
0.0012572
0.00168523
0.00220304
0.0028239
0.00355784
0.00440532
0.00534936
0.00633209
0.00722821
0.007896
0.00802615
-0.00029852
-0.00031213
-0.000274822
-0.00021674
-0.000128151
-7.16533e-06
0.000151076
0.000352823
0.000606388
0.000922646
0.00131576
0.00180381
0.00240897
0.00315475
0.00405778
0.00512151
0.0063049
0.00747818
0.00841267
0.00868801
-0.000503341
-0.000520579
-0.000491872
-0.000447621
-0.000378264
-0.000282397
-0.000155644
7.78743e-06
0.000216007
0.000480424
0.000816892
0.00124746
0.00180254
0.00252195
0.00344991
0.00461478
0.00602906
0.00760485
0.00900806
0.00957952
-0.000748927
-0.000770274
-0.000751765
-0.000723987
-0.000677834
-0.00061272
-0.000525326
-0.000411132
-0.000263515
-7.26091e-05
0.000176531
0.000506398
0.000950458
0.00155835
0.00239712
0.00354165
0.00510808
0.00716533
0.00930361
0.0103709
-0.00102932
-0.00105516
-0.00104806
-0.00103887
-0.00101929
-0.000989959
-0.000949356
-0.000895318
-0.000824393
-0.000730984
-0.00060595
-0.000434287
-0.000191139
0.000162923
0.000683942
0.00145447
0.00266105
0.00478142
0.00750492
0.00946942
-0.00133779
-0.00136838
-0.00137328
-0.0013839
-0.00139303
-0.00140303
-0.00141493
-0.00143023
-0.00145068
-0.00147842
-0.00151594
-0.00156626
-0.00163361
-0.00173106
-0.00190373
-0.00218093
-0.00221664
-0.000596879
0.00238718
0.0055345
-0.00166684
-0.00170186
-0.00171805
-0.00174808
-0.00178595
-0.00183622
-0.00190291
-0.00199192
-0.00211173
-0.00227491
-0.00250106
-0.00282248
-0.00329595
-0.00402931
-0.00523671
-0.00702016
-0.00897966
-0.00800769
-0.00493103
-0.000651916
-0.00201038
-0.00205059
-0.0020771
-0.00212535
-0.00218945
-0.00227717
-0.00239579
-0.00255655
-0.00277536
-0.003077
-0.00350079
-0.00411181
-0.00502543
-0.00643198
-0.00869109
-0.0118012
-0.0156393
-0.0154639
-0.0130937
-0.00764076
-0.00235784
-0.00239954
-0.00243031
-0.00248978
-0.00257424
-0.00269369
-0.00285733
-0.00307941
-0.0033821
-0.00379927
-0.00438558
-0.005228
-0.00650064
-0.00841431
-0.0115335
-0.0154562
-0.0212678
-0.0217702
-0.0206065
-0.0140239
-0.00271572
-0.00276699
-0.0028002
-0.0028732
-0.00296901
-0.00310729
-0.0032973
-0.00355852
-0.00391641
-0.0044099
-0.00510268
-0.00607693
-0.00758338
-0.00963889
-0.0134804
-0.0172672
-0.0246669
-0.0249238
-0.0245743
-0.0177432
-0.00305695
-0.00309616
-0.00311197
-0.00316232
-0.00325489
-0.00340144
-0.00361285
-0.00390348
-0.00429642
-0.00482657
-0.00556243
-0.00653747
-0.00812609
-0.00996237
-0.0139595
-0.0170314
-0.0238747
-0.0236127
-0.0244025
-0.017509
-0.00339466
-0.00349605
-0.00349554
-0.00358929
-0.00366395
-0.00379834
-0.00398207
-0.00424663
-0.00461298
-0.00511182
-0.00581515
-0.00666663
-0.00815594
-0.00970848
-0.0129575
-0.0153452
-0.0201431
-0.0191703
-0.0205427
-0.0134568
-0.00389442
-0.00380196
-0.0037318
-0.00364556
-0.00368004
-0.00379205
-0.00398954
-0.00427239
-0.0046493
-0.00512671
-0.00578817
-0.00651192
-0.00770963
-0.0088942
-0.0111178
-0.0124383
-0.0150908
-0.0131713
-0.0152266
-0.00660578
-0.00366841
-0.00421104
-0.00415307
-0.00437707
-0.00432656
-0.00439423
-0.00446806
-0.00463734
-0.00489543
-0.00525146
-0.00577745
-0.00636651
-0.00730798
-0.00818328
-0.00986929
-0.0106825
-0.0122508
-0.00982408
-0.010454
0.00335849
-0.00589836
-0.00467659
-0.00436444
-0.00368221
-0.00359495
-0.00363912
-0.00382354
-0.00410029
-0.00444898
-0.00484936
-0.00535719
-0.00589301
-0.00658813
-0.00722872
-0.0080781
-0.00833521
-0.00850143
-0.00655691
-0.00422763
0.0209675
-0.00229638
-0.00562912
-0.00494978
-0.00545256
-0.00498383
-0.00497468
-0.00485193
-0.00490452
-0.00501753
-0.00523348
-0.00558813
-0.0060201
-0.0066291
-0.00745401
-0.00870467
-0.00957328
-0.0114427
-0.00666812
0.00132857
0.0493724
-0.016978
-0.00410199
-0.00310198
-0.00288971
-0.00282822
-0.0028992
-0.00315421
-0.00346006
-0.00382637
-0.00421238
-0.00469176
-0.00519316
-0.00577344
-0.00626957
-0.00671175
-0.00517609
-0.00133556
0.0166777
0.0535495
0.140395
3.60091e-05
3.16692e-05
8.20816e-05
0.000166141
0.000291854
0.000461739
0.000680787
0.000955021
0.00129133
0.00169703
0.00217897
0.00274202
0.00338702
0.00410708
0.0048831
0.00567656
0.00642746
0.00703974
0.00745998
0.00751846
4.19985e-05
3.73158e-05
8.93692e-05
0.00017234
0.000295426
0.000461165
0.00067459
0.000941645
0.0012692
0.00166478
0.00213597
0.00268905
0.00332642
0.00404315
0.004826
0.0056383
0.00641976
0.00706761
0.00751947
0.00757729
-1.9741e-05
-2.79582e-05
2.12169e-05
9.8907e-05
0.000214791
0.000371259
0.000573435
0.000827519
0.00114097
0.00152248
0.0019816
0.00252773
0.00316864
0.0039065
0.00473449
0.00562007
0.00650074
0.00725656
0.00779406
0.00785848
-0.000127637
-0.000138593
-9.41159e-05
-2.45202e-05
8.0185e-05
0.000222227
0.000406813
0.000640435
0.00093127
0.00128949
0.00172749
0.00225963
0.00290101
0.00366437
0.0045489
0.00554103
0.00657854
0.00752392
0.00822625
0.00832621
-0.000285891
-0.000300009
-0.000262315
-0.000203748
-0.000114232
8.17832e-06
0.00016856
0.000373471
0.000631692
0.000954804
0.00135801
0.00186097
0.00248808
0.00326586
0.00421408
0.00533576
0.00659076
0.00783358
0.0088188
0.0090332
-0.000490249
-0.000508044
-0.000478996
-0.000434345
-0.000364176
-0.000267046
-0.000138381
2.78926e-05
0.000240328
0.000511012
0.000856831
0.0013014
0.00187746
0.00262797
0.00360161
0.00483128
0.00633284
0.00800488
0.00947646
0.00994619
-0.000735416
-0.000757379
-0.0007386
-0.000710547
-0.000663767
-0.000597658
-0.000508752
-0.000392328
-0.000241453
-4.57783e-05
0.000210405
0.000550758
0.00101057
0.00164215
0.00251475
0.00370936
0.00534967
0.00750695
0.00971851
0.0106779
-0.00101534
-0.00104187
-0.00103459
-0.0010253
-0.00100535
-0.000975417
-0.000933898
-0.000878577
-0.000805941
-0.000710353
-0.000582702
-0.000408227
-0.000162894
0.000190169
0.000700071
0.00144099
0.00260297
0.00477513
0.00762554
0.00964102
-0.00132316
-0.00135451
-0.00135937
-0.00137012
-0.00137921
-0.00138908
-0.00140083
-0.00141608
-0.00143694
-0.00146618
-0.00150766
-0.00156717
-0.0016547
-0.00179701
-0.00206821
-0.00252745
-0.00281456
-0.00112552
0.00208473
0.00549642
-0.00165118
-0.00168702
-0.00170332
-0.00173371
-0.00177187
-0.00182253
-0.00188985
-0.00198008
-0.00210243
-0.00227094
-0.00250811
-0.00285237
-0.00337321
-0.00420361
-0.0056117
-0.00772877
-0.0101545
-0.00913632
-0.00603088
-0.00121191
-0.00199312
-0.00203424
-0.00206105
-0.00210992
-0.00217466
-0.00226322
-0.00238312
-0.00254612
-0.00276921
-0.00307918
-0.00351923
-0.00416246
-0.0051414
-0.00667543
-0.00920055
-0.012719
-0.0171831
-0.0169882
-0.0146733
-0.00876073
-0.00233785
-0.00238055
-0.00241177
-0.00247202
-0.00255732
-0.00267786
-0.00284305
-0.00306763
-0.00337477
-0.00380032
-0.00440247
-0.00527521
-0.00661231
-0.00863991
-0.0120077
-0.0161901
-0.0223833
-0.0228131
-0.0215265
-0.0151327
-0.00269174
-0.0027441
-0.00277793
-0.002852
-0.0029489
-0.00308835
-0.00327973
-0.0035428
-0.0039036
-0.00440232
-0.00510433
-0.0060943
-0.00764194
-0.00973093
-0.0136977
-0.0175548
-0.0247252
-0.0247222
-0.024471
-0.0181622
-0.0030267
-0.00306746
-0.00308415
-0.00313568
-0.00322913
-0.0033765
-0.00358864
-0.0038799
-0.00427326
-0.00480391
-0.00554019
-0.00650942
-0.00810765
-0.00990773
-0.0137882
-0.0169223
-0.0228622
-0.0224956
-0.0234171
-0.0170787
-0.00335541
-0.00345837
-0.0034587
-0.00355421
-0.00363041
-0.00376589
-0.00394997
-0.00421381
-0.00457785
-0.00507249
-0.00576785
-0.00660221
-0.00807093
-0.00956701
-0.0126542
-0.014895
-0.0190487
-0.0177249
-0.0191065
-0.0126716
-0.00384318
-0.00375422
-0.00368592
-0.00360191
-0.00363666
-0.00374891
-0.00394576
-0.00422696
-0.00459998
-0.00507105
-0.00572139
-0.00642337
-0.00758566
-0.0087102
-0.0107949
-0.0119659
-0.0141846
-0.0120701
-0.0140736
-0.00594964
-0.00360129
-0.00414794
-0.00408718
-0.00431713
-0.00426933
-0.00433941
-0.00441354
-0.00458105
-0.00483463
-0.00518271
-0.00569711
-0.00626708
-0.00717715
-0.00801774
-0.00961869
-0.0103951
-0.0117472
-0.0093019
-0.00983075
0.00372571
-0.00580928
-0.00460468
-0.00428874
-0.00361675
-0.00352523
-0.00356934
-0.00375204
-0.00402711
-0.00437137
-0.00476585
-0.00526117
-0.00578314
-0.00644596
-0.00706329
-0.00783668
-0.0080829
-0.00813758
-0.00630682
-0.00396328
0.0213089
-0.00219145
-0.00555206
-0.00486538
-0.00537568
-0.00490681
-0.0048997
-0.00477503
-0.00482515
-0.00493471
-0.00513963
-0.00548573
-0.00590448
-0.00648472
-0.0073056
-0.00849318
-0.00935698
-0.0111752
-0.00646466
0.00143271
0.04994
-0.0168973
-0.00401222
-0.00299045
-0.00278083
-0.00272641
-0.00280195
-0.00305691
-0.00336392
-0.00372624
-0.00410991
-0.00457774
-0.00507093
-0.00562709
-0.00610316
-0.006507
-0.00492049
-0.00102337
0.017123
0.0540397
0.141566
4.51865e-05
4.08355e-05
9.16789e-05
0.000176467
0.000303399
0.000475102
0.000696777
0.000974723
0.0013162
0.00172902
0.00222065
0.00279661
0.00345839
0.00419965
0.00500116
0.00582321
0.00660289
0.00723842
0.00767354
0.00772695
5.15176e-05
4.67938e-05
9.92953e-05
0.000182996
0.000307293
0.000474826
0.000690837
0.000961543
0.00129418
0.00169679
0.00217757
0.00274354
0.00339776
0.00413616
0.00494573
0.00578856
0.00660134
0.00727476
0.00774315
0.00779318
-9.81164e-06
-1.80855e-05
3.15364e-05
0.00010994
0.00022701
0.00038524
0.000589966
0.000847674
0.00116622
0.00155483
0.00202377
0.00258335
0.00324253
0.00400487
0.00486291
0.00578461
0.00670366
0.00749125
0.00804957
0.00809668
-0.000117239
-0.000128269
-8.3359e-05
-1.30847e-05
9.2759e-05
0.000236499
0.00042356
0.000660732
0.000956615
0.00132199
0.00177006
0.00231631
0.00297708
0.003766
0.00468719
0.00572398
0.00681081
0.00779833
0.00852988
0.00859212
-0.000275087
-0.000289305
-0.000251207
-0.00019202
-0.000101447
2.25502e-05
0.00018526
0.000393543
0.000656621
0.000986721
0.00139999
0.00191744
0.00256541
0.00337277
0.00435941
0.00553516
0.00685363
0.00815456
0.00918168
0.00931518
-0.000479091
-0.000497015
-0.000467617
-0.000422437
-0.000351344
-0.000252818
-0.000122097
4.71577e-05
0.000263909
0.000540848
0.000895759
0.00135358
0.00194882
0.00272624
0.00373187
0.00502695
0.00660431
0.00835741
0.00988669
0.0102105
-0.000723913
-0.000746042
-0.000726993
-0.000698544
-0.00065104
-0.000583836
-0.000493325
-0.000374609
-0.00022049
-2.02241e-05
0.000242491
0.000592203
0.00106569
0.00171818
0.00262669
0.00385252
0.00555215
0.00780075
0.0100658
0.0108807
-0.00100342
-0.00103016
-0.00102272
-0.00101321
-0.000992808
-0.00096219
-0.00091971
-0.000863117
-0.000788889
-0.000691444
-0.000561873
-0.000385955
-0.000140923
0.000207082
0.000700319
0.00140279
0.0025236
0.00476381
0.00772672
0.00970748
-0.00131065
-0.00134226
-0.00134709
-0.00135782
-0.00136678
-0.00137647
-0.00138805
-0.00140333
-0.00142477
-0.00145592
-0.00150213
-0.00157224
-0.00168256
-0.00187418
-0.00224917
-0.00289189
-0.00341595
-0.00165208
0.00168639
0.00530188
-0.00163774
-0.00167388
-0.00169028
-0.00172086
-0.00175922
-0.0018102
-0.00187813
-0.00196967
-0.00209479
-0.0022691
-0.00251819
-0.00288687
-0.0034578
-0.0043892
-0.00600277
-0.00845073
-0.0113617
-0.0102298
-0.00705168
-0.00185406
-0.00197823
-0.0020197
-0.00204675
-0.00209605
-0.00216128
-0.00225058
-0.00237172
-0.00253704
-0.00276462
-0.00308339
-0.00354072
-0.00421769
-0.00526466
-0.00693022
-0.00971696
-0.0136299
-0.0187278
-0.0183465
-0.0160151
-0.00984722
-0.00232066
-0.00236375
-0.00239532
-0.00245614
-0.00254208
-0.00266354
-0.00283019
-0.0030573
-0.00336912
-0.00380361
-0.00442297
-0.00532734
-0.00673011
-0.00886784
-0.0124905
-0.0169211
-0.0234834
-0.0236973
-0.0223322
-0.0161234
-0.00267127
-0.00272404
-0.00275831
-0.00283312
-0.00293075
-0.00307113
-0.00326374
-0.0035287
-0.00389276
-0.00439741
-0.00511111
-0.00611724
-0.00771107
-0.00983764
-0.0139649
-0.0178787
-0.0250637
-0.0245982
-0.0245976
-0.0184407
-0.00300142
-0.00304271
-0.00305998
-0.00311233
-0.00320635
-0.00335429
-0.00356699
-0.00385891
-0.00425323
-0.00478534
-0.00552565
-0.00648925
-0.00810881
-0.00987136
-0.0137823
-0.0168538
-0.0223265
-0.0216771
-0.0228426
-0.0166532
-0.00332446
-0.00342776
-0.00342833
-0.0035249
-0.00360175
-0.0037378
-0.00392187
-0.004185
-0.00454745
-0.00503903
-0.0057317
-0.00654732
-0.00801254
-0.00946106
-0.0124603
-0.014566
-0.0183665
-0.0166947
-0.0181419
-0.0119267
-0.00380206
-0.00371495
-0.0036477
-0.0035656
-0.00360045
-0.00371273
-0.00390875
-0.0041882
-0.00455805
-0.00502292
-0.00566885
-0.00634697
-0.00748948
-0.00855962
-0.0105566
-0.0116023
-0.0135746
-0.0112617
-0.0133526
-0.00526564
-0.00355858
-0.00410548
-0.00403989
-0.00427315
-0.00422571
-0.00429686
-0.00437024
-0.00453542
-0.00478505
-0.00512537
-0.00563169
-0.0061834
-0.00707585
-0.0078758
-0.00942638
-0.0101385
-0.0113921
-0.00885102
-0.00950561
0.0041954
-0.00573959
-0.00454414
-0.00422881
-0.00356592
-0.00347341
-0.00351765
-0.00369901
-0.00397119
-0.0043117
-0.00469866
-0.00518557
-0.0056923
-0.0063377
-0.0069244
-0.0076569
-0.00785473
-0.00787428
-0.00603045
-0.00384217
0.0217476
-0.0021479
-0.00551859
-0.00481661
-0.00533221
-0.00486015
-0.0048521
-0.00472499
-0.00477019
-0.00487757
-0.0050696
-0.00541021
-0.00581548
-0.00638163
-0.00718262
-0.00833647
-0.00915825
-0.0109834
-0.00615925
0.0015033
0.0505557
-0.0168351
-0.00395248
-0.00292201
-0.00270868
-0.00265953
-0.00273611
-0.00299318
-0.00329668
-0.00365898
-0.00403486
-0.00449901
-0.00497876
-0.00552472
-0.00597071
-0.00635011
-0.00468636
-0.000772224
0.0175631
0.0544323
0.142526
5.3203e-05
4.8954e-05
0.000100243
0.000185786
0.000313921
0.000487391
0.000711589
0.000993066
0.00133941
0.00175887
0.00225944
0.0028472
0.00352416
0.00428439
0.00510857
0.00595577
0.00676051
0.00741607
0.00786389
0.00791242
5.96804e-05
5.50296e-05
0.000107981
0.000192435
0.000317931
0.000487219
0.000705728
0.000979925
0.00131738
0.00172655
0.00221621
0.00279399
0.00346345
0.00422125
0.00505447
0.00592403
0.00676394
0.00745913
0.00794144
0.00798366
-1.40551e-06
-9.61413e-06
4.04515e-05
0.000119593
0.000237841
0.000397796
0.000604988
0.000866159
0.00118952
0.00158475
0.00206273
0.00263452
0.00330995
0.0040934
0.00497837
0.00593154
0.00688345
0.00769751
0.00827296
0.00830252
-0.000108547
-0.000119521
-7.41842e-05
-3.20521e-06
0.000103769
0.000249171
0.000438622
0.000679176
0.000979806
0.00135181
0.00180907
0.00236795
0.00304538
0.00385262
0.0048099
0.00588551
0.00701427
0.00803636
0.0087915
0.00881481
-0.000266125
-0.000280301
-0.00024181
-0.000181975
-9.03543e-05
3.51893e-05
0.000200135
0.000411606
0.000679207
0.00101571
0.00143807
0.00196847
0.00263531
0.00347281
0.00448892
0.00570972
0.00708219
0.00843123
0.00949247
0.00954132
-0.000469874
-0.000487778
-0.000458039
-0.000412301
-0.000340293
-0.000240415
-0.000107738
6.43047e-05
0.000285021
0.000567607
0.000930591
0.00140003
0.00201209
0.00281396
0.00385413
0.00519863