/*--------------------------------*- C++ -*----------------------------------*\
  =========                 |
  \\      /  F ield         | OpenFOAM: The Open Source CFD Toolbox
   \\    /   O peration     | Website:  https://openfoam.org
    \\  /    A nd           | Version:  9
     \\/     M anipulation  |
\*---------------------------------------------------------------------------*/
FoamFile
{
    format      ascii;
    class       surfaceScalarField;
    location    "10";
    object      phi;
}
// * * * * * * * * * * * * * * * * * * * * * * * * * * * * * * * * * * * * * //

dimensions      [0 3 -1 0 0 0 0];

internalField   nonuniform List<scalar> 
22800
(
-5.18573e-06
5.98732e-06
-8.04942e-07
-1.40008e-05
9.29949e-06
-4.84464e-07
-2.38008e-05
1.01937e-05
-3.93647e-07
-3.4147e-05
1.06884e-05
-3.42319e-07
-4.49758e-05
1.12003e-05
-3.71454e-07
-5.632e-05
1.18017e-05
-4.57562e-07
-6.81719e-05
1.24565e-05
-6.04523e-07
-8.04347e-05
1.30933e-05
-8.30497e-07
-9.28776e-05
1.36071e-05
-1.16417e-06
-0.00010508
1.38471e-05
-1.64456e-06
-0.000116369
1.36088e-05
-2.32045e-06
-0.000125763
1.26415e-05
-3.24705e-06
-0.000131944
1.06606e-05
-4.47923e-06
-0.000133278
7.39367e-06
-6.06061e-06
-0.000127934
2.65729e-06
-8.00045e-06
-0.000114265
-3.52689e-06
-1.01427e-05
-9.14104e-05
-1.0628e-05
-1.22264e-05
-6.04244e-05
-1.7268e-05
-1.3718e-05
-2.54191e-05
-2.09118e-05
-1.40934e-05
-1.50835e-05
-1.03357e-05
-8.42734e-06
1.62702e-05
-1.8555e-06
-2.1759e-05
2.43558e-05
-1.72464e-06
-3.64477e-05
2.65538e-05
-1.67144e-06
-5.18186e-05
2.76507e-05
-1.5913e-06
-6.77212e-05
2.86918e-05
-1.5889e-06
-8.41294e-05
2.98526e-05
-1.64271e-06
-0.000100973
3.10611e-05
-1.76116e-06
-0.000118071
3.21592e-05
-1.96773e-06
-0.000135081
3.29098e-05
-2.29316e-06
-0.000151419
3.29813e-05
-2.79591e-06
-0.000166185
3.19224e-05
-3.54772e-06
-0.000178076
2.91568e-05
-4.62414e-06
-0.000185412
2.4101e-05
-6.10449e-06
-0.000186148
1.61812e-05
-8.05111e-06
-0.000178018
5.03783e-06
-1.05104e-05
-0.000158771
-9.42311e-06
-1.33506e-05
-0.000127165
-2.60579e-05
-1.61762e-05
-8.43784e-05
-4.17804e-05
-1.82745e-05
-3.60381e-05
-5.04558e-05
-1.87964e-05
-3.76847e-05
-1.34369e-05
-9.06186e-06
2.76422e-05
-2.31023e-06
-2.34161e-05
4.09808e-05
-2.27081e-06
-3.92042e-05
4.45737e-05
-2.23174e-06
-5.56864e-05
4.62642e-05
-2.13127e-06
-7.271e-05
4.7819e-05
-2.1036e-06
-9.02638e-05
4.95359e-05
-2.12947e-06
-0.000108304
5.13217e-05
-2.22082e-06
-0.000126687
5.29485e-05
-2.40628e-06
-0.000145115
5.40687e-05
-2.73025e-06
-0.000163073
5.41857e-05
-3.24697e-06
-0.000179715
5.26273e-05
-4.06274e-06
-0.0001938
4.85257e-05
-5.28394e-06
-0.000203549
4.0887e-05
-7.03653e-06
-0.000206615
2.86975e-05
-9.4502e-06
-0.000200174
1.12094e-05
-1.26129e-05
-0.000181259
-1.18603e-05
-1.64781e-05
-0.000147601
-3.91652e-05
-2.055e-05
-9.94755e-05
-6.59819e-05
-2.39243e-05
-4.32735e-05
-8.15265e-05
-2.51314e-05
-6.24134e-05
-1.85448e-05
-8.90781e-06
3.91904e-05
-2.64034e-06
-2.32054e-05
5.79671e-05
-2.68874e-06
-3.89664e-05
6.30001e-05
-2.66544e-06
-5.5462e-05
6.53153e-05
-2.55552e-06
-7.25712e-05
6.74437e-05
-2.51557e-06
-9.03359e-05
6.98301e-05
-2.52935e-06
-0.000108788
7.2387e-05
-2.61304e-06
-0.00012789
7.48516e-05
-2.80127e-06
-0.00014748
7.6808e-05
-3.14893e-06
-0.0001672
7.76414e-05
-3.73627e-06
-0.000186388
7.64846e-05
-4.66921e-06
-0.00020391
7.21793e-05
-6.13205e-06
-0.000217974
6.32769e-05
-8.32536e-06
-0.00022597
4.81808e-05
-1.14877e-05
-0.000224357
2.54478e-05
-1.58511e-05
-0.000208974
-5.66379e-06
-2.15796e-05
-0.000175445
-4.45846e-05
-2.811e-05
-0.000121978
-8.51098e-05
-3.43392e-05
-5.52397e-05
-0.000110741
-3.7523e-05
-8.83964e-05
-2.92567e-05
-8.43739e-06
5.0495e-05
-2.86722e-06
-2.2284e-05
7.48015e-05
-2.98774e-06
-3.76331e-05
8.13279e-05
-2.97867e-06
-5.3774e-05
8.43234e-05
-2.86715e-06
-7.06267e-05
8.7125e-05
-2.82865e-06
-8.83055e-05
9.03595e-05
-2.85063e-06
-0.00010695
9.39862e-05
-2.95434e-06
-0.000126674
9.77571e-05
-3.1822e-06
-0.00014751
0.000101247
-3.6026e-06
-0.000169345
0.000103797
-4.32099e-06
-0.00019179
0.000104425
-5.49568e-06
-0.000213986
0.000101738
-7.36182e-06
-0.000234292
9.38467e-05
-1.02645e-05
-0.000249868
7.83942e-05
-1.46367e-05
-0.000256353
5.28894e-05
-2.0957e-05
-0.000247789
1.55178e-05
-2.9745e-05
-0.000216978
-3.44173e-05
-4.09789e-05
-0.000158151
-9.06706e-05
-5.32665e-05
-7.64966e-05
-0.000130731
-6.16644e-05
-0.000112503
-5.23901e-05
-7.78497e-06
6.13362e-05
-3.0562e-06
-2.09595e-05
9.12183e-05
-3.24231e-06
-3.56747e-05
9.92892e-05
-3.24611e-06
-5.12287e-05
0.000103013
-3.13523e-06
-6.75803e-05
0.000106579
-3.10281e-06
-8.49186e-05
0.000110839
-3.14126e-06
-0.000103502
0.000115848
-3.27799e-06
-0.00012362
0.00012144
-3.56477e-06
-0.000145555
0.000127268
-4.08619e-06
-0.000169515
0.000132734
-4.97652e-06
-0.00019552
0.00013688
-6.44945e-06
-0.000223172
0.000138233
-8.84328e-06
-0.000251267
0.000134624
-1.26818e-05
-0.000277169
0.000123028
-1.87315e-05
-0.000295877
9.96303e-05
-2.80327e-05
-0.000299181
6.07072e-05
-4.18863e-05
-0.0002768
5.12507e-06
-6.19231e-05
-0.000215503
-6.53332e-05
-8.66348e-05
-0.000114815
-0.000123324
-0.000108095
-0.000125365
-0.000101953
-6.98139e-06
7.15651e-05
-3.24751e-06
-1.92982e-05
0.000107038
-3.50275e-06
-3.31725e-05
0.000116681
-3.51706e-06
-4.78939e-05
0.000121137
-3.40273e-06
-6.34461e-05
0.000125503
-3.37132e-06
-8.00828e-05
0.000130897
-3.42149e-06
-9.8175e-05
0.000137528
-3.58737e-06
-0.000118187
0.000145382
-3.93042e-06
-0.000140668
0.000154301
-4.55204e-06
-0.000166223
0.000163907
-5.61873e-06
-0.00019541
0.000173474
-7.40657e-06
-0.000228527
0.000181728
-1.03778e-05
-0.00026519
0.000186596
-1.53104e-05
-0.000303539
0.000184858
-2.34816e-05
-0.00033898
0.000171959
-3.68875e-05
-0.00036208
0.000142374
-5.85664e-05
-0.000356099
9.18009e-05
-9.26571e-05
-0.000302273
2.11059e-05
-0.000140265
-0.000182065
-5.916e-05
-0.000184372
-0.000119372
-0.000188058
-6.04243e-06
8.10711e-05
-3.46355e-06
-1.73316e-05
0.000122124
-3.79705e-06
-3.0152e-05
0.000133318
-3.81687e-06
-4.37599e-05
0.000138433
-3.68862e-06
-5.81383e-05
0.000143525
-3.64417e-06
-7.35809e-05
0.00015003
-3.68971e-06
-9.05434e-05
0.000158356
-3.86597e-06
-0.000109635
0.000168717
-4.24317e-06
-0.000131647
0.00018125
-4.93727e-06
-0.000157568
0.00019597
-6.14253e-06
-0.000188567
0.000212667
-8.19442e-06
-0.000225861
0.00023071
-1.16879e-05
-0.000270326
0.000248761
-1.76994e-05
-0.000321632
0.000264331
-2.8167e-05
-0.000376697
0.000273485
-4.64606e-05
-0.000426583
0.000270298
-7.80381e-05
-0.000451156
0.000245137
-0.000128764
-0.000414236
0.000173975
-0.00018979
-0.000272855
2.41224e-05
-0.000224663
-0.000156413
-0.000235814
-5.00213e-06
8.97978e-05
-3.72463e-06
-1.51295e-05
0.0001364
-4.14875e-06
-2.66947e-05
0.000149047
-4.16429e-06
-3.88945e-05
0.000154637
-4.00428e-06
-5.16663e-05
0.000160221
-3.92393e-06
-6.53118e-05
0.000167613
-3.93759e-06
-8.03166e-05
0.000177452
-4.0907e-06
-9.73645e-05
0.000190223
-4.45804e-06
-0.000117392
0.00020644
-5.16203e-06
-0.000141664
0.00022665
-6.40769e-06
-0.000171849
0.000251409
-8.55654e-06
-0.000210008
0.00028114
-1.22713e-05
-0.000258437
0.000316008
-1.88181e-05
-0.00031885
0.000355268
-3.05237e-05
-0.000390661
0.000396455
-5.11592e-05
-0.000464717
0.000428766
-8.44116e-05
-0.000518526
0.000422794
-0.000123848
-0.000505918
0.000286603
-0.000125237
-0.000368847
-5.57857e-05
-5.71626e-05
-0.000404349
-0.000120911
-3.93401e-06
9.77957e-05
-4.06383e-06
-1.28461e-05
0.000149918
-4.60526e-06
-2.30007e-05
0.000163814
-4.6118e-06
-3.35176e-05
0.000169556
-4.40172e-06
-4.42384e-05
0.000175195
-4.25262e-06
-5.54373e-05
0.000183007
-4.19511e-06
-6.75598e-05
0.000193852
-4.27807e-06
-8.12609e-05
0.000208504
-4.57952e-06
-9.74748e-05
0.000227875
-5.22135e-06
-0.000117523
0.000253096
-6.39771e-06
-0.000143304
0.000285633
-8.44369e-06
-0.000177279
0.000327054
-1.19396e-05
-0.000222804
0.000379495
-1.7962e-05
-0.000282803
0.000443111
-2.78452e-05
-0.000360875
0.000515622
-4.10959e-05
-0.000454427
0.00056971
-4.73918e-05
-0.000567808
0.000540437
-4.26229e-06
-0.000657618
0.000217902
0.000158512
-0.000479619
-0.000544182
0.000310397
-0.000967915
8.39479e-05
-2.91595e-06
0.000105213
-4.50127e-06
-1.06771e-05
0.000162806
-5.12765e-06
-1.9361e-05
0.000177568
-5.07046e-06
-2.80077e-05
0.000182962
-4.7595e-06
-3.62934e-05
0.000187982
-4.50211e-06
-4.4415e-05
0.000195478
-4.35009e-06
-5.27079e-05
0.000206488
-4.34296e-06
-6.16534e-05
0.000221965
-4.51542e-06
-7.19547e-05
0.000243155
-4.97853e-06
-8.46372e-05
0.000271641
-5.86226e-06
-0.00010145
0.000309821
-7.37522e-06
-0.000124633
0.000359924
-9.68638e-06
-0.000159118
0.000426903
-1.29227e-05
-0.000210137
0.000509205
-1.50748e-05
-0.000297944
0.000609717
-6.28738e-06
-0.000454368
0.000671305
5.48289e-05
-0.000731973
0.000574977
0.000243065
-0.000891463
-0.000142776
0.000520167
-0.000540123
-0.00142324
0.000527713
-0.0016661
0.00015806
-2.31552e-06
0.000112768
-5.23919e-06
-9.27034e-06
0.000175921
-6.15974e-06
-1.65125e-05
0.000190907
-6.09718e-06
-2.30424e-05
0.000195212
-5.71965e-06
-2.84799e-05
0.000198684
-5.26433e-06
-3.30139e-05
0.000204904
-4.89171e-06
-3.67469e-05
0.000214856
-4.63536e-06
-3.98943e-05
0.000229723
-4.61068e-06
-4.27882e-05
0.000250904
-4.85567e-06
-4.58544e-05
0.000280121
-5.41348e-06
-5.03006e-05
0.000320666
-6.39914e-06
-5.76122e-05
0.000374438
-7.20227e-06
-7.46193e-05
0.000450465
-6.55453e-06
-0.000111437
0.000542929
3.09388e-06
-0.000219464
0.000670671
4.7072e-05
-0.00046918
0.000730179
0.000190842
-0.000888969
0.000518984
0.000475783
-0.000956688
-0.000731631
0.000656574
-0.000599771
-0.00210914
0.000328985
-0.00231865
5.27852e-05
-1.56803e-06
0.000120392
-6.05658e-06
-8.04598e-06
0.000189302
-6.90342e-06
-1.41694e-05
0.000203648
-6.61736e-06
-1.92896e-05
0.000206289
-5.95678e-06
-2.22242e-05
0.000206903
-5.28445e-06
-2.30856e-05
0.000210529
-4.76379e-06
-2.17348e-05
0.000217867
-4.3619e-06
-1.81096e-05
0.000230244
-4.14648e-06
-1.19688e-05
0.000248939
-4.17512e-06
-3.1364e-06
0.000275612
-4.32374e-06
8.71454e-06
0.000313517
-4.70126e-06
2.19496e-05
0.000364637
-3.43368e-06
3.25322e-05
0.00043886
1.0221e-06
2.13318e-05
0.000530227
2.39033e-05
-7.24002e-05
0.000667468
9.69352e-05
-0.000341661
0.000716052
0.000283388
-0.000735191
0.000361097
0.000551417
-0.000795553
-0.00115899
0.000487717
-0.000652606
-0.00235834
0.000106254
-0.00290331
-6.79504e-05
-4.15444e-06
0.000132716
-8.16929e-06
-1.19239e-05
0.000206717
-9.64476e-06
-1.70935e-05
0.000218163
-9.34553e-06
-1.8754e-05
0.000216647
-8.69743e-06
-1.73207e-05
0.000213095
-7.62535e-06
-1.33939e-05
0.000213298
-6.69508e-06
-6.77603e-06
0.000217061
-5.81173e-06
3.07826e-06
0.00022553
-5.13979e-06
1.69407e-05
0.000239824
-4.74812e-06
3.61957e-05
0.000260846
-4.48835e-06
6.26101e-05
0.000291535
-4.43243e-06
9.82797e-05
0.000332029
-3.06242e-06
0.000139738
0.000393376
4.02666e-06
0.000179152
0.000463283
2.75295e-05
0.00015856
0.000575383
0.000112677
-2.54507e-05
0.000618986
0.000281076
-0.000317383
0.000179048
0.000473982
-0.000535662
-0.00123849
0.000297784
-0.00055554
-0.00249067
0.000152213
-0.00330396
-0.000154895
-5.56684e-07
0.000144218
-1.09456e-05
-9.40619e-06
0.000227461
-1.18951e-05
-1.54014e-05
0.000234933
-1.07741e-05
-1.98321e-05
0.000230175
-9.09801e-06
-1.85702e-05
0.00021931
-7.47641e-06
-1.2659e-05
0.000213738
-6.35196e-06
-1.59388e-06
0.000211346
-5.35024e-06
1.46201e-05
0.000213905
-4.58872e-06
3.69511e-05
0.000221675
-4.18167e-06
6.70963e-05
0.000234619
-3.91871e-06
0.000107538
0.000254787
-3.69382e-06
0.000162989
0.000280286
-3.70833e-06
0.000232887
0.000319521
3.95655e-06
0.000319696
0.000356566
1.99083e-05
0.000389151
0.000415187
9.07411e-05
0.000349948
0.000439273
0.000218916
0.000118368
5.30427e-05
0.000357586
-0.000226638
-0.00111115
0.000217662
-0.000425304
-0.00244719
0.000155183
-0.00353226
-0.000196997
-2.82125e-05
0.000187057
-1.46264e-05
-3.85503e-05
0.000252997
-1.51984e-05
-3.98107e-05
0.000251826
-1.5633e-05
-3.20662e-05
0.000238198
-1.57675e-05
-2.04812e-05
0.000221322
-1.35967e-05
-6.76499e-06
0.000211537
-1.15154e-05
9.64486e-06
0.000204454
-9.51742e-06
3.01337e-05
0.000201217
-7.80151e-06
5.64137e-05
0.0002022
-6.80485e-06
9.16814e-05
0.00020575
-6.39852e-06
0.00013799
0.000214615
-6.13628e-06
0.000201534
0.000224023
-7.28088e-06
0.000282018
0.000241523
-2.48602e-06
0.000382984
0.000248588
7.01236e-06
0.000488483
0.000256894
5.27936e-05
0.000538465
0.00024569
0.000143602
0.000376044
-4.0133e-05
0.000255596
-3.34995e-05
-0.00087384
0.000172237
-0.00035278
-0.00222772
9.98063e-05
-0.00364387
-0.00024117
1.79419e-05
0.000207871
-3.87562e-05
-1.49865e-05
0.000324337
-3.84115e-05
-3.45778e-05
0.000296177
-2.47592e-05
-4.42138e-05
0.000264776
-1.6942e-05
-4.04466e-05
0.000230514
-1.29593e-05
-2.76765e-05
0.000209737
-1.097e-05
-7.75017e-06
0.000193714
-9.1865e-06
1.86921e-05
0.000182456
-7.68079e-06
5.16328e-05
0.000176235
-6.97602e-06
9.36444e-05
0.000170689
-6.95041e-06
0.000146389
0.00016961
-7.73994e-06
0.00021509
0.00016558
-1.02586e-05
0.000299953
0.000166869
-1.02089e-05
0.000399738
0.000155025
-6.22179e-06
0.000500973
0.000142642
1.30178e-05
0.000576021
9.68344e-05
7.38072e-05
0.000444167
-5.41182e-05
0.000145839
3.45073e-05
-0.000600194
0.000136014
-0.000266454
-0.00203705
0.000110291
-0.00363143
-0.000278894
-9.31947e-05
0.000322676
-2.16098e-05
-7.76259e-05
0.000331452
-2.26833e-05
-6.38868e-05
0.00030996
-2.75223e-05
-5.76171e-05
0.000296218
-3.77109e-05
-3.90604e-05
0.00024575
-3.37932e-05
-1.73322e-05
0.000216197
-2.81883e-05
8.1577e-06
0.000190819
-2.25943e-05
3.88773e-05
0.000168736
-1.70002e-05
7.42767e-05
0.00015497
-1.41337e-05
0.000118437
0.000138521
-1.19927e-05
0.00016965
0.000131808
-1.34102e-05
0.000232404
0.000117852
-1.50259e-05
0.00030451
0.000116445
-2.16813e-05
0.00037509
0.000100784
-1.63387e-05
0.000450664
9.26235e-05
-2.55557e-05
0.000482117
3.50347e-05
3.03469e-05
0.000469325
-8.79768e-05
4.66501e-05
0.000277577
-0.000474441
6.59944e-05
-3.8871e-05
-0.00185602
0.000135419
-0.00335519
-0.000315112
-0.000379064
0.000850446
-0.000148706
-0.000340699
0.000372712
-7.96247e-05
-0.000272544
0.000301541
-5.97368e-05
-0.000152357
0.000226605
-5.05743e-05
-3.52917e-05
0.000171522
-4.28371e-05
8.01021e-05
0.000131749
-3.09451e-05
0.000187722
0.000108244
-2.50448e-05
0.000287427
8.68051e-05
-1.7774e-05
0.000382482
7.56637e-05
-1.57493e-05
0.000472262
6.12796e-05
-1.25378e-05
0.000562815
5.65623e-05
-1.53076e-05
0.000650364
4.61619e-05
-1.58596e-05
0.000755176
4.1931e-05
-3.0298e-05
0.000845644
3.14203e-05
-2.11055e-05
0.000966835
1.37992e-05
-4.2366e-05
0.00106681
-3.19751e-05
-3.29611e-05
0.00111528
-0.000168649
3.21971e-05
0.00109961
-0.000481785
2.30186e-05
0.000504438
-0.00140598
0.000145135
-0.00244934
-0.000401413
0.000960414
-0.000109969
0.00144005
-0.000106922
0.00185435
-0.000112757
0.00218733
-0.000106374
0.00245489
-9.60476e-05
0.00267874
-9.2095e-05
0.00286733
-8.03504e-05
0.00303344
-7.93003e-05
0.00317635
-6.72444e-05
0.00331034
-7.2714e-05
0.00342112
-5.42176e-05
0.00353735
-7.00711e-05
0.00362513
-4.58422e-05
0.00373016
-7.36135e-05
0.00377865
-3.46887e-05
0.00382639
-7.97137e-05
0.00367238
-1.46443e-05
0.00327474
-8.4145e-05
0.00187493
-6.16935e-06
-0.000574414
-7.92584e-06
8.47511e-06
-1.35421e-06
-2.14529e-05
1.43301e-05
-1.28742e-06
-3.64895e-05
1.58759e-05
-1.233e-06
-5.21073e-05
1.64833e-05
-1.20774e-06
-6.81773e-05
1.69878e-05
-1.28934e-06
-8.47084e-05
1.75414e-05
-1.46781e-06
-0.000101642
1.80888e-05
-1.76012e-06
-0.000118789
1.85176e-05
-2.20073e-06
-0.000135781
1.86667e-05
-2.83927e-06
-0.000152
1.83154e-05
-3.74077e-06
-0.000166513
1.71759e-05
-4.9829e-06
-0.000178011
1.48979e-05
-6.64727e-06
-0.000184777
1.10949e-05
-8.80771e-06
-0.000184746
5.41319e-06
-1.15047e-05
-0.000175672
-2.37155e-06
-1.47029e-05
-0.000155523
-1.20957e-05
-1.8196e-05
-0.000123323
-2.28415e-05
-2.15857e-05
-8.05372e-05
-3.23629e-05
-2.41405e-05
-3.33556e-05
-3.62716e-05
-2.50035e-05
-2.41811e-05
-1.95102e-05
-1.43309e-05
2.34552e-05
-2.5047e-06
-3.66506e-05
3.76635e-05
-2.73832e-06
-6.11394e-05
4.14171e-05
-2.7239e-06
-8.63026e-05
4.27211e-05
-2.66596e-06
-0.000111808
4.36256e-05
-2.72158e-06
-0.000137513
4.44935e-05
-2.88987e-06
-0.000163203
4.52174e-05
-3.19888e-06
-0.000188506
4.55497e-05
-3.69705e-06
-0.000212811
4.5131e-05
-4.45255e-06
-0.000235204
4.34676e-05
-5.55542e-06
-0.000254384
3.99229e-05
-7.11514e-06
-0.000268569
3.37078e-05
-9.24865e-06
-0.000275551
2.40325e-05
-1.20601e-05
-0.000272782
1.0218e-05
-1.56247e-05
-0.000257425
-8.27931e-06
-1.99601e-05
-0.000226828
-3.12886e-05
-2.47541e-05
-0.00017972
-5.663e-05
-2.94963e-05
-0.000117863
-7.93309e-05
-3.31631e-05
-4.98636e-05
-8.87733e-05
-3.42941e-05
-6.14358e-05
-2.60457e-05
-1.60804e-05
4.02638e-05
-3.03842e-06
-4.09784e-05
6.37129e-05
-3.42221e-06
-6.82009e-05
6.98325e-05
-3.42464e-06
-9.60594e-05
7.17886e-05
-3.34023e-06
-0.000124189
7.30172e-05
-3.36579e-06
-0.000152443
7.41233e-05
-3.50559e-06
-0.000180617
7.49656e-05
-3.79461e-06
-0.000208363
7.51804e-05
-4.291e-06
-0.000235115
7.4231e-05
-5.07808e-06
-0.000260002
7.13753e-05
-6.26768e-06
-0.00028177
6.56324e-05
-8.00388e-06
-0.000298692
5.58025e-05
-1.04567e-05
-0.00030843
4.05454e-05
-1.38114e-05
-0.000308015
1.85794e-05
-1.8227e-05
-0.000293986
-1.11507e-05
-2.37703e-05
-0.000262719
-4.87969e-05
-3.02366e-05
-0.000211548
-9.13466e-05
-3.70048e-05
-0.000141052
-0.000131061
-4.26895e-05
-6.09765e-05
-0.00014914
-4.48409e-05
-0.000106806
-3.41516e-05
-1.62703e-05
5.73509e-05
-3.45721e-06
-4.16587e-05
9.0387e-05
-3.97448e-06
-6.94432e-05
9.8947e-05
-3.99544e-06
-9.79084e-05
0.000101593
-3.8951e-06
-0.000126731
0.000103226
-3.90138e-06
-0.000155839
0.000104726
-4.02419e-06
-0.000185131
0.000105952
-4.30631e-06
-0.0002144
0.000106465
-4.81734e-06
-0.000243258
0.000105599
-5.65955e-06
-0.000271046
0.000102404
-6.97671e-06
-0.000296706
9.55865e-05
-8.96372e-06
-0.00031863
8.34709e-05
-1.18764e-05
-0.000334432
6.40437e-05
-1.60215e-05
-0.000340765
3.51558e-05
-2.17316e-05
-0.000333366
-5.08551e-06
-2.93147e-05
-0.000306599
-5.83876e-05
-3.87555e-05
-0.000255104
-0.000121531
-4.94209e-05
-0.000176504
-0.000184582
-5.94185e-05
-8.02484e-05
-0.000218755
-6.41631e-05
-0.000166769
-4.95422e-05
-1.59125e-05
7.41872e-05
-3.79094e-06
-4.11103e-05
0.000117023
-4.42623e-06
-6.87982e-05
0.000128122
-4.4653e-06
-9.72629e-05
0.000131548
-4.35676e-06
-0.000126249
0.00013374
-4.35663e-06
-0.000155799
0.000135906
-4.48118e-06
-0.000185975
0.000137955
-4.78208e-06
-0.000216785
0.000139437
-5.3431e-06
-0.000248117
0.000139619
-6.29101e-06
-0.000279638
0.000137417
-7.81206e-06
-0.000310652
0.000131279
-1.01745e-05
-0.000339864
0.000119078
-1.37563e-05
-0.000365042
9.80261e-05
-1.90682e-05
-0.000382518
6.47365e-05
-2.67421e-05
-0.000386951
1.58177e-05
-3.74274e-05
-0.000370594
-5.26328e-05
-5.18567e-05
-0.000323805
-0.00013971
-6.95895e-05
-0.000238775
-0.000234717
-8.81606e-05
-0.000119381
-0.000300662
-9.91526e-05
-0.000259606
-7.89336e-05
-1.53205e-05
9.05515e-05
-4.10008e-06
-4.00505e-05
0.000143363
-4.85191e-06
-6.73752e-05
0.000157108
-4.90766e-06
-9.55753e-05
0.000161404
-4.79131e-06
-0.000124467
0.000164316
-4.78658e-06
-0.000154223
0.000167438
-4.91712e-06
-0.0001851
0.000170798
-5.24414e-06
-0.000217377
0.000174016
-5.86658e-06
-0.000251305
0.000176399
-6.93835e-06
-0.000287015
0.000176845
-8.69465e-06
-0.000324372
0.000173681
-1.14941e-05
-0.000362706
0.000164446
-1.5879e-05
-0.000400366
0.000145657
-2.2652e-05
-0.000434024
0.000112599
-3.29357e-05
-0.000457546
5.95237e-05
-4.82175e-05
-0.000461962
-1.96714e-05
-7.04309e-05
-0.000432505
-0.000130662
-0.000100428
-0.000351704
-0.000267302
-0.000134851
-0.000202897
-0.00039944
-0.000158124
-0.00043345
-0.000131005
-1.45696e-05
0.000106302
-4.4288e-06
-3.86465e-05
0.000169246
-5.30863e-06
-6.54025e-05
0.000185724
-5.37743e-06
-9.30887e-05
0.000190932
-5.24495e-06
-0.000121582
0.000194662
-5.22442e-06
-0.000151182
0.000198964
-5.34748e-06
-0.000182349
0.000204062
-5.68404e-06
-0.000215663
0.000209745
-6.34645e-06
-0.000251804
0.000215502
-7.51356e-06
-0.000291511
0.000220403
-9.47008e-06
-0.000335453
0.00022289
-1.26731e-05
-0.000383994
0.000220472
-1.78621e-05
-0.00043674
0.000209326
-2.62339e-05
-0.000491777
0.000183834
-3.96797e-05
-0.000544534
0.000136421
-6.10271e-05
-0.000586663
5.77566e-05
-9.38654e-05
-0.000600499
-6.72719e-05
-0.000142212
-0.000548325
-0.000262601
-0.000197141
-0.00035643
-0.000549324
-0.000226382
-0.000785966
-0.000191973
-1.36823e-05
0.000121331
-4.81021e-06
-3.69441e-05
0.000194549
-5.83835e-06
-6.29167e-05
0.000213793
-5.9128e-06
-8.97848e-05
0.000219859
-5.74705e-06
-0.000117457
0.000224377
-5.68693e-06
-0.000146342
0.000229931
-5.7723e-06
-0.000177088
0.000237022
-6.07937e-06
-0.00021057
0.000245713
-6.72882e-06
-0.000247919
0.000255829
-7.91553e-06
-0.000290553
0.000266855
-9.96004e-06
-0.000340169
0.000277715
-1.34033e-05
-0.000398647
0.000286443
-1.91812e-05
-0.000467786
0.000289703
-2.89368e-05
-0.000548882
0.000282275
-4.5512e-05
-0.000642074
0.000256558
-7.34063e-05
-0.000742481
0.000197948
-0.000117822
-0.000825848
6.30426e-05
-0.000175711
-0.000801543
-0.000263405
-0.000213291
-0.000518311
-0.000876524
-0.000180695
-0.00136793
-0.000172156
-1.26957e-05
0.000135582
-5.27976e-06
-3.50164e-05
0.000219205
-6.48419e-06
-5.99907e-05
0.000241154
-6.55069e-06
-8.56918e-05
0.00024788
-6.32468e-06
-0.00011201
0.00025296
-6.18905e-06
-0.000139425
0.0002596
-6.19132e-06
-0.000168725
0.000268639
-6.40894e-06
-0.000201016
0.000280506
-6.96058e-06
-0.000237815
0.000295504
-8.03776e-06
-0.000281172
0.000313764
-9.95997e-06
-0.000333819
0.000335091
-1.32852e-05
-0.000399335
0.00035873
-1.90422e-05
-0.000482356
0.000383062
-2.91571e-05
-0.000588723
0.000405078
-4.69591e-05
-0.000724018
0.00041715
-7.6456e-05
-0.000880724
0.00038486
-0.000114618
-0.00100584
0.000190178
-0.000125873
-0.000950645
-0.000414742
-2.90897e-05
-0.00054627
-0.00146218
0.000124122
-0.00199698
-3.8136e-05
-1.17084e-05
0.00014912
-5.89292e-06
-3.30552e-05
0.00024327
-7.32352e-06
-5.68496e-05
0.000267708
-7.37149e-06
-8.10175e-05
0.000274701
-7.05434e-06
-0.000105376
0.00027986
-6.79442e-06
-0.000130436
0.000287117
-6.65213e-06
-0.000157045
0.000297675
-6.70417e-06
-0.000186442
0.000312383
-7.05922e-06
-0.000220383
0.000332108
-7.88476e-06
-0.000261359
0.000357791
-9.44824e-06
-0.00031288
0.000390419
-1.2251e-05
-0.000379801
0.000430917
-1.72064e-05
-0.000468898
0.000480137
-2.59392e-05
-0.000587897
0.000536491
-4.02587e-05
-0.000741482
0.000585714
-5.6075e-05
-0.00091193
0.000549479
-4.15627e-05
-0.00104649
0.000227647
9.28339e-05
-0.00097747
-0.000721026
0.000395771
-0.000525007
-0.00209423
0.00048998
-0.00251134
7.32999e-05
-1.07656e-05
0.000162085
-6.70093e-06
-3.12319e-05
0.000266979
-8.37017e-06
-5.37871e-05
0.000293535
-8.34296e-06
-7.6194e-05
0.000300218
-7.87032e-06
-9.80382e-05
0.000304635
-7.43221e-06
-0.000119788
0.000311613
-7.09627e-06
-0.000142261
0.000322724
-6.91857e-06
-0.000166662
0.000339235
-6.96715e-06
-0.000194665
0.000362487
-7.35432e-06
-0.000228758
0.000394242
-8.22027e-06
-0.000272623
0.000436768
-9.85797e-06
-0.000331404
0.000492634
-1.26225e-05
-0.000412897
0.000565558
-1.68515e-05
-0.000524633
0.000652342
-1.91904e-05
-0.000675637
0.0007278
2.63073e-06
-0.000854499
0.000665315
0.000117855
-0.00103836
0.000218705
0.000435867
-0.000981689
-0.00104158
0.000784051
-0.000525171
-0.00246177
0.000438737
-0.00296005
8.16055e-05
-1.0544e-05
0.000175337
-7.94691e-06
-3.06384e-05
0.000290984
-1.00704e-05
-5.19035e-05
0.000318711
-1.00076e-05
-7.19639e-05
0.000323944
-9.38477e-06
-9.05069e-05
0.000326583
-8.66953e-06
-0.000108062
0.000332285
-8.00824e-06
-0.000125246
0.00034273
-7.45734e-06
-0.000143005
0.000359488
-7.10442e-06
-0.000162764
0.000384384
-6.99355e-06
-0.00018654
0.00041973
-7.12571e-06
-0.000217541
0.000468919
-7.54954e-06
-0.000259524
0.00053512
-7.70478e-06
-0.00032046
0.000625665
-5.72469e-06
-0.000404848
0.00072992
9.90334e-06
-0.000540708
0.000831707
7.90259e-05
-0.00072111
0.000740258
0.000296301
-0.000946857
0.000228132
0.000692102
-0.000837456
-0.00126558
0.000771168
-0.000454425
-0.00255739
4.15725e-05
-0.00338434
2.2642e-05
-9.48519e-06
0.000188278
-9.51232e-06
-2.94982e-05
0.00031594
-1.18462e-05
-5.01093e-05
0.000344233
-1.15282e-05
-6.93043e-05
0.000347705
-1.05232e-05
-8.51914e-05
0.000346647
-9.46121e-06
-9.82441e-05
0.000349068
-8.49447e-06
-0.000108819
0.000356571
-7.62837e-06
-0.000117686
0.000371106
-6.89738e-06
-0.000125782
0.000394592
-6.28704e-06
-0.000134201
0.000429453
-5.62824e-06
-0.000145091
0.00047985
-4.74207e-06
-0.000159569
0.000548038
-1.87312e-06
-0.000185867
0.000646688
6.29685e-06
-0.000221794
0.000751616
3.81344e-05
-0.000309728
0.000875549
0.000141027
-0.000447021
0.000765965
0.000394975
-0.000610661
0.00022702
0.000716169
-0.000566598
-0.00131681
0.000494883
-0.000367104
-0.00258898
-6.16536e-05
-0.00370711
-0.000112284
-1.46883e-05
0.00020727
-1.2473e-05
-3.73544e-05
0.000344526
-1.55648e-05
-5.66852e-05
0.000369391
-1.51731e-05
-7.03826e-05
0.000366774
-1.40683e-05
-8.00099e-05
0.000361222
-1.25733e-05
-8.65277e-05
0.000359992
-1.11015e-05
-9.00466e-05
0.000363914
-9.63572e-06
-9.05386e-05
0.000374759
-8.30115e-06
-8.79109e-05
0.000394329
-7.11263e-06
-8.18344e-05
0.000424682
-5.7942e-06
-7.26283e-05
0.000470529
-4.31785e-06
-5.81797e-05
0.000530695
-1.68348e-07
-4.0239e-05
0.000622251
1.05225e-05
-2.37024e-05
0.000716473
4.61352e-05
-3.08108e-06
0.000816749
0.000150856
-6.77763e-05
0.000736226
0.000375511
-0.000140219
0.000192067
0.000581377
-0.000272706
-0.00117552
0.000288988
-0.000238958
-0.00252968
5.91712e-05
-0.00391829
-0.000182665
-5.46475e-06
0.000218651
-1.6862e-05
-2.99926e-05
0.000377517
-2.03588e-05
-5.3494e-05
0.00040107
-1.89518e-05
-7.41173e-05
0.000394859
-1.65605e-05
-8.51428e-05
0.000378934
-1.41626e-05
-8.88997e-05
0.00036956
-1.21633e-05
-8.52526e-05
0.000365228
-1.03118e-05
-7.51954e-05
0.000368791
-8.67791e-06
-5.87019e-05
0.000380935
-7.2815e-06
-3.48076e-05
0.000402599
-5.72946e-06
-1.46684e-06
0.000437793
-4.29867e-06
4.09187e-05
0.000485284
-6.82919e-07
0.00010301
0.000554182
9.93382e-06
0.000180011
0.000623863
3.55181e-05
0.000278587
0.000690148
0.000118765
0.000319922
0.000629044
0.000284763
0.000281248
0.000167141
0.000421187
4.53389e-05
-0.000917824
0.000195871
-7.33577e-05
-0.00229415
3.83519e-05
-0.00401934
-0.00016931
-4.92491e-05
0.000274225
-2.09516e-05
-7.32056e-05
0.000410235
-2.39591e-05
-8.61824e-05
0.000422814
-2.43999e-05
-8.76655e-05
0.000404332
-2.37573e-05
-8.45279e-05
0.000383357
-2.11576e-05
-7.80113e-05
0.000369918
-1.83902e-05
-6.71401e-05
0.000360424
-1.5584e-05
-5.05487e-05
0.000357375
-1.2977e-05
-2.67004e-05
0.000361217
-1.0935e-05
6.32649e-06
0.00037198
-8.80646e-06
5.23271e-05
0.000393221
-7.56434e-06
0.000113398
0.000422874
-5.9414e-06
0.00019656
0.000466937
1.59733e-06
0.000299107
0.000509405
1.89229e-05
0.000435095
0.000536145
7.08088e-05
0.000524998
0.000495387
0.000187356
0.000540397
0.000119833
0.000287504
0.00027812
-0.000626978
0.000143667
5.7975e-05
-0.00198408
9.87332e-06
-0.00400654
-0.000195995
7.86357e-06
0.000273126
-4.55209e-05
-6.50104e-05
0.000494514
-4.98173e-05
-0.000108603
0.000479427
-3.77787e-05
-0.000126653
0.000434942
-2.95029e-05
-0.000124979
0.000393124
-2.44002e-05
-0.000112963
0.000367951
-2.10187e-05
-9.18318e-05
0.000348001
-1.78944e-05
-6.33804e-05
0.000336355
-1.5112e-05
-2.64008e-05
0.000330335
-1.30741e-05
2.07906e-05
0.000329128
-1.129e-05
8.27473e-05
0.000334304
-1.07798e-05
0.000161381
0.000344796
-1.0814e-05
0.000264908
0.000362022
-8.82107e-06
0.000385133
0.000381102
1.85712e-06
0.000530906
0.000380512
2.28772e-05
0.000646059
0.000353762
0.000100279
0.000639235
0.000108745
0.000163751
0.000327349
-0.00029559
0.000116512
0.000154714
-0.00176198
6.08301e-05
-0.00393819
-0.000192531
-3.74888e-05
0.000321228
-3.22225e-05
-3.62918e-06
0.000476767
-3.87957e-05
-9.54912e-06
0.00050098
-4.31557e-05
-4.9514e-05
0.000485393
-4.81964e-05
-6.76899e-05
0.000421844
-4.43368e-05
-7.73253e-05
0.000387845
-3.84465e-05
-7.26255e-05
0.000352701
-3.19948e-05
-5.35854e-05
0.000325915
-2.56003e-05
-2.19157e-05
0.00030606
-2.15282e-05
2.44641e-05
0.000288485
-1.77293e-05
8.55655e-05
0.000277935
-1.81423e-05
0.000162226
0.000270768
-1.76591e-05
0.000255752
0.000269531
-2.27162e-05
0.00035303
0.000280785
-1.33003e-05
0.000464303
0.000266002
-2.2318e-05
0.000530017
0.000271387
4.70081e-05
0.00058361
4.34618e-05
5.83399e-05
0.0004945
-0.000187902
4.74165e-05
0.000430054
-0.0016595
9.73895e-05
-0.0036139
-0.000209342
-0.000646073
0.000946341
-0.000127746
-0.000677583
0.000512625
-8.3973e-05
-0.000630885
0.000463977
-6.94322e-05
-0.000513613
0.00038149
-6.39435e-05
-0.00039512
0.000316545
-5.60316e-05
-0.000266081
0.000273078
-4.52172e-05
-0.000138567
0.000239286
-3.91431e-05
-1.17519e-05
0.000212975
-3.16491e-05
0.000114906
0.000192032
-2.83793e-05
0.000239316
0.000175969
-2.44321e-05
0.000366281
0.000161109
-2.54479e-05
0.000493274
0.000152796
-2.48795e-05
0.000633825
0.000138113
-3.94316e-05
0.00077592
0.00014105
-2.34654e-05
0.000949211
0.000101047
-5.07023e-05
0.00113314
9.77264e-05
-4.32268e-05
0.0012656
-8.50203e-05
2.82149e-05
0.00142382
-0.000314119
-8.98109e-06
0.00115184
-0.00133432
9.19378e-05
-0.00260649
-0.00025699
0.000930404
-9.4031e-05
0.00143194
-9.58329e-05
0.00188431
-0.00010115
0.00225858
-9.91548e-05
0.00257154
-9.24662e-05
0.0028445
-9.19745e-05
0.00308564
-8.21984e-05
0.00330342
-8.4106e-05
0.00350003
-7.18288e-05
0.0036844
-8.11081e-05
0.00385179
-6.04979e-05
0.00401422
-7.97063e-05
0.00416024
-5.37478e-05
0.00431268
-8.50124e-05
0.00442559
-4.65458e-05
0.00453647
-9.28698e-05
0.00447489
-3.8088e-05
0.00416807
-9.14436e-05
0.00285733
-2.9747e-05
-0.000323576
-8.56825e-06
8.79609e-06
-1.58205e-06
-2.33401e-05
1.53202e-05
-1.83579e-06
-3.9746e-05
1.70367e-05
-1.86381e-06
-5.66997e-05
1.76428e-05
-1.89695e-06
-7.40506e-05
1.80957e-05
-2.03413e-06
-9.18042e-05
1.85743e-05
-2.28847e-06
-0.000109893
1.90188e-05
-2.69007e-06
-0.000128116
1.93067e-05
-3.28458e-06
-0.000146085
1.92631e-05
-4.13368e-06
-0.000163157
1.86473e-05
-5.31516e-06
-0.000178365
1.71432e-05