/*--------------------------------*- C++ -*----------------------------------*\
  =========                 |
  \\      /  F ield         | OpenFOAM: The Open Source CFD Toolbox
   \\    /   O peration     | Website:  https://openfoam.org
    \\  /    A nd           | Version:  9
     \\/     M anipulation  |
\*---------------------------------------------------------------------------*/
FoamFile
{
    format      ascii;
    class       volVectorField;
    location    "10";
    object      U;
}
// * * * * * * * * * * * * * * * * * * * * * * * * * * * * * * * * * * * * * //

dimensions      [0 1 -1 0 0 0 0];

internalField   nonuniform List<vector> 
8000
(
(-0.000181178 0.000207879 -4.37443e-05)
(-0.000886369 0.000341593 -1.47534e-05)
(-0.00188984 0.000377607 -6.68175e-06)
(-0.0028892 0.000400511 -2.02992e-06)
(-0.00395105 0.000426748 -2.947e-06)
(-0.00506046 0.000459346 -7.24191e-06)
(-0.00622232 0.000496513 -1.48022e-05)
(-0.007432 0.000535065 -2.65351e-05)
(-0.00867339 0.000570345 -4.40162e-05)
(-0.00991425 0.000595335 -6.94274e-05)
(-0.0111012 0.000600426 -0.000105562)
(-0.0121532 0.000573887 -0.00015566)
(-0.0129562 0.000503431 -0.000222893)
(-0.0133615 0.000376406 -0.000309255)
(-0.013192 0.000181971 -0.000414539)
(-0.0122697 -8.44569e-05 -0.000533289)
(-0.0104312 -0.000397732 -0.000649703)
(-0.00775345 -0.000693461 -0.000730434)
(-0.00417344 -0.000861109 -0.000745313)
(-0.00104965 -0.000602432 -0.000524853)
(-0.000314503 0.0010267 -0.000116021)
(-0.00140951 0.00156519 -9.82583e-05)
(-0.00291027 0.00171179 -9.31216e-05)
(-0.00440339 0.00179001 -8.68537e-05)
(-0.00597278 0.0018682 -8.53179e-05)
(-0.00759052 0.00195798 -8.65205e-05)
(-0.009257 0.00205378 -9.05877e-05)
(-0.0109606 0.00214423 -9.87359e-05)
(-0.0126757 0.00221254 -0.00011308)
(-0.0143566 0.00223507 -0.000136229)
(-0.0159302 0.00217995 -0.000171861)
(-0.017288 0.00200821 -0.000224871)
(-0.0182813 0.00167418 -0.00030033)
(-0.0187231 0.00113435 -0.000402367)
(-0.018395 0.000361833 -0.00053444)
(-0.0170635 -0.000632479 -0.000686703)
(-0.014507 -0.00176486 -0.000839432)
(-0.0108048 -0.00282198 -0.000950648)
(-0.0058711 -0.00339817 -0.00097258)
(-0.00150935 -0.00248699 -0.000671681)
(-0.000336687 0.00219918 -0.00014664)
(-0.00151634 0.00326885 -0.000134313)
(-0.00313206 0.00355849 -0.000130176)
(-0.00473419 0.00369789 -0.000122653)
(-0.00641563 0.00382678 -0.000119438)
(-0.00814646 0.00396849 -0.000118635)
(-0.00992974 0.00411439 -0.00012051)
(-0.0117571 0.00424468 -0.000126471)
(-0.0136073 0.00432957 -0.00013903)
(-0.0154403 0.00432724 -0.000161934)
(-0.0171891 0.00418151 -0.000199622)
(-0.0187512 0.00382159 -0.000258544)
(-0.019978 0.0031657 -0.000346615)
(-0.0206634 0.00213359 -0.000472047)
(-0.0205464 0.000671966 -0.000639783)
(-0.0193329 -0.00120397 -0.000846388)
(-0.01671 -0.00336536 -0.00106786)
(-0.0126508 -0.00543549 -0.00124984)
(-0.00700647 -0.00659386 -0.00131169)
(-0.00184634 -0.00497464 -0.000944975)
(-0.000325694 0.00334018 -0.000167944)
(-0.00149597 0.00494249 -0.000160884)
(-0.00310969 0.00537234 -0.000157844)
(-0.00470951 0.00557152 -0.000149841)
(-0.00639546 0.00575397 -0.00014594)
(-0.00813982 0.00595632 -0.000144391)
(-0.0099527 0.00616901 -0.000145653)
(-0.0118347 0.00636674 -0.000151375)
(-0.0137769 0.00651007 -0.00016446)
(-0.0157548 0.00654207 -0.000189524)
(-0.0177185 0.00638441 -0.000233219)
(-0.0195797 0.00593476 -0.000304173)
(-0.0211957 0.00507178 -0.000414444)
(-0.0223506 0.00366738 -0.00057774)
(-0.0227385 0.00161433 -0.000806659)
(-0.0219744 -0.00111572 -0.00111615)
(-0.0195799 -0.00437673 -0.00147395)
(-0.0152848 -0.00766061 -0.00181781)
(-0.0088177 -0.00962916 -0.00200106)
(-0.00245568 -0.00748276 -0.00156669)
(-0.000300537 0.00448621 -0.000181504)
(-0.00142543 0.00663775 -0.000178515)
(-0.00299629 0.00721402 -0.000176405)
(-0.00455621 0.00747808 -0.000168474)
(-0.00621075 0.0077223 -0.000164882)
(-0.00793605 0.00799964 -0.000164078)
(-0.0097518 0.00830311 -0.000166768)
(-0.0116714 0.00860626 -0.000174953)
(-0.0137033 0.00886532 -0.000192126)
(-0.0158455 0.00901421 -0.000223959)
(-0.0180756 0.00895795 -0.000279238)
(-0.0203341 0.0085661 -0.000370998)
(-0.0224984 0.00766922 -0.000518007)
(-0.0243512 0.00606878 -0.000744689)
(-0.0255424 0.00356968 -0.00107969)
(-0.0255666 4.85873e-05 -0.00155999)
(-0.0237285 -0.00437163 -0.00218113)
(-0.0193439 -0.00914888 -0.00287419)
(-0.0119153 -0.0123031 -0.00338449)
(-0.00362137 -0.0100428 -0.00298818)
(-0.000266922 0.00559591 -0.000192044)
(-0.00132622 0.00830329 -0.000192581)
(-0.00283142 0.00903155 -0.000191288)
(-0.00432881 0.00936622 -0.000183621)
(-0.00592795 0.00968253 -0.000180717)
(-0.0076089 0.0100535 -0.000181325)
(-0.00940149 0.010479 -0.000186487)
(-0.0113335 0.0109375 -0.000198681)
(-0.0134346 0.0113887 -0.000222178)
(-0.0157315 0.0117672 -0.000264003)
(-0.0182392 0.0119717 -0.000335658)
(-0.0209446 0.0118537 -0.000455701)
(-0.0237742 0.0112041 -0.000653383)
(-0.0265411 0.00974633 -0.000972441)
(-0.0288788 0.00715835 -0.0014732)
(-0.0301488 0.00315638 -0.00222692)
(-0.0294441 -0.00231693 -0.00335053)
(-0.0254406 -0.00862413 -0.00477858)
(-0.0171894 -0.0133979 -0.00615237)
(-0.005861 -0.0120933 -0.00619592)
(-0.00022612 0.00665074 -0.000202317)
(-0.00120335 0.00991662 -0.000206571)
(-0.00262316 0.0108011 -0.000205956)
(-0.00403538 0.0112097 -0.000198348)
(-0.00555202 0.0116053 -0.000195887)
(-0.00715563 0.0120854 -0.000197745)
(-0.00888517 0.0126621 -0.000205371)
(-0.0107823 0.0133253 -0.000221793)
(-0.0128985 0.0140478 -0.000252183)
(-0.015293 0.0147783 -0.000305233)
(-0.0180275 0.0154277 -0.000395661)
(-0.0211521 0.0158511 -0.0005486)
(-0.0246753 0.0158241 -0.000807095)
(-0.0285005 0.0150165 -0.00124253)
(-0.0323141 0.0129843 -0.00196632)
(-0.0354552 0.00923217 -0.00315392)
(-0.0366798 0.0034308 -0.0050844)
(-0.0340047 -0.00399063 -0.00801567)
(-0.0258816 -0.0105914 -0.0113263)
(-0.0100766 -0.0122677 -0.0127319)
(-0.000178775 0.00763835 -0.000213663)
(-0.00105941 0.011463 -0.00022222)
(-0.00237503 0.0125045 -0.00022198)
(-0.00367737 0.0129842 -0.000213833)
(-0.00507902 0.0134582 -0.00021101)
(-0.0065623 0.0140531 -0.000213236)
(-0.00817243 0.0147986 -0.000222421)
(-0.00996212 0.0157035 -0.000242175)
(-0.0120011 0.0167645 -0.000278553)
(-0.0143788 0.0179605 -0.000341803)
(-0.0172053 0.01924 -0.00044982)
(-0.0206063 0.0204994 -0.000634655)
(-0.0247009 0.0215531 -0.000954816)
(-0.0295426 0.0220915 -0.00151613)
(-0.034997 0.0216501 -0.00250542)
(-0.0405134 0.0196058 -0.0042598)
(-0.0447705 0.0153536 -0.0073475)
(-0.0447521 0.00847981 -0.0121437)
(-0.0376471 -0.00067106 -0.0176466)
(-0.0159048 -0.0111144 -0.020572)
(-0.000126401 0.00854972 -0.000227183)
(-0.000899879 0.0129307 -0.000240929)
(-0.00209541 0.0141236 -0.00024048)
(-0.00326279 0.014662 -0.000230746)
(-0.00451351 0.0151999 -0.000226175)
(-0.00582544 0.0158984 -0.000227167)
(-0.00724536 0.0168092 -0.000236064)
(-0.00883087 0.0179659 -0.000256929)
(-0.0106616 0.0193989 -0.000296391)
(-0.0128465 0.0211328 -0.000365431)
(-0.0155315 0.0231788 -0.000483285)
(-0.0189057 0.0255168 -0.00068479)
(-0.0231975 0.0280739 -0.00103614)
(-0.0286334 0.0306721 -0.00165951)
(-0.0353411 0.0329986 -0.00277474)
(-0.0430425 0.0343666 -0.00478946)
(-0.0502763 0.0333207 -0.00835106)
(-0.0532034 0.0250955 -0.0131483)
(-0.0491227 0.00476218 -0.0170596)
(-0.0222559 -0.0216324 -0.0187699)
(-7.22687e-05 0.00938467 -0.000244709)
(-0.000736473 0.0143208 -0.000265578)
(-0.00180303 0.0156529 -0.000264609)
(-0.00281342 0.0162273 -0.00025222)
(-0.00387763 0.016797 -0.000243878)
(-0.00496398 0.0175656 -0.000241233)
(-0.00611598 0.0186089 -0.000247063)
(-0.00738741 0.0199898 -0.000265951)
(-0.00885523 0.0217795 -0.000304921)
(-0.0106292 0.0240622 -0.000374627)
(-0.0128666 0.0269373 -0.000492882)
(-0.0157833 0.0305032 -0.000688003)
(-0.019676 0.0348651 -0.00101071)
(-0.0248869 0.0400064 -0.00152892)
(-0.0318348 0.0457056 -0.00230659)
(-0.0406542 0.050338 -0.00329779)
(-0.0517898 0.0496738 -0.00418009)
(-0.0632215 0.0305964 -0.00389502)
(-0.0656905 -0.0159067 0.00151846)
(-0.0281919 -0.0592102 0.00139981)
(-1.91104e-05 0.0101473 -0.000267243)
(-0.000582621 0.0156225 -0.000294566)
(-0.00152317 0.0170554 -0.000289943)
(-0.0023642 0.0176158 -0.000271726)
(-0.00321494 0.0181627 -0.000257175)
(-0.00402496 0.0189457 -0.000249386)
(-0.00483218 0.0200564 -0.00025003)
(-0.00567502 0.0215846 -0.000262848)
(-0.00660952 0.0236383 -0.00029464)
(-0.00771681 0.0263526 -0.000352548)
(-0.00913028 0.0299185 -0.00044737)
(-0.0110339 0.0345331 -0.000580656)
(-0.0137783 0.0405339 -0.000749908)
(-0.0178575 0.0479045 -0.000834082)
(-0.0245761 0.0565776 -0.0004043)
(-0.0355736 0.0626673 0.00162421)
(-0.0578545 0.0586516 0.00694345)
(-0.0892467 0.0149331 0.0181089)
(-0.0838482 -0.0887817 0.0361083)
(-0.0262131 -0.130811 0.0164131)
(1.4232e-05 0.0109082 -0.000307649)
(-0.000493625 0.0169842 -0.000353103)
(-0.00132899 0.0185111 -0.000348542)
(-0.00198749 0.0190497 -0.000326758)
(-0.00259192 0.0194958 -0.000300273)
(-0.00308075 0.0201876 -0.000279637)
(-0.00348559 0.0212302 -0.000266699)
(-0.00381662 0.0227506 -0.000268658)
(-0.00410243 0.0248913 -0.000290745)
(-0.00436854 0.0278262 -0.000334704)
(-0.00471115 0.031846 -0.00040752)
(-0.00518377 0.0371671 -0.000460284)
(-0.00626904 0.0444876 -0.00041997)
(-0.00833121 0.053438 0.000203425)
(-0.0145507 0.0649285 0.00237127)
(-0.029011 0.0713703 0.00891451)
(-0.0681436 0.0580521 0.0223218)
(-0.106098 -0.042736 0.0397092)
(-0.082577 -0.196708 0.037548)
(-0.0345856 -0.203297 0.00258758)
(7.021e-05 0.0115989 -0.000350427)
(-0.000399987 0.0180757 -0.000387129)
(-0.00117084 0.0195093 -0.000367558)
(-0.00169343 0.0197719 -0.000327529)
(-0.00212337 0.0200096 -0.000287018)
(-0.00229951 0.02056 -0.000258928)
(-0.0022763 0.0215192 -0.000239908)
(-0.00202368 0.0229815 -0.000235234)
(-0.00154794 0.0250739 -0.000248511)
(-0.000780176 0.0279636 -0.000270185)
(0.000186579 0.0319862 -0.000317546)
(0.00162879 0.0373608 -0.000255337)
(0.00269601 0.0450564 -3.33897e-06)
(0.00411499 0.0545126 0.0013468)
(-0.000190989 0.0680299 0.00522873)
(-0.0132264 0.0732119 0.0151384)
(-0.0590407 0.0429988 0.0310275)
(-0.0833591 -0.107626 0.0340527)
(-0.0800838 -0.233292 0.0103082)
(-0.0441938 -0.265655 -0.00921304)
(-7.56668e-05 0.0125263 -0.000481381)
(-0.000776759 0.020016 -0.000563953)
(-0.00156119 0.0214819 -0.000544456)
(-0.0018511 0.0218639 -0.000504901)
(-0.00186172 0.0217456 -0.000437826)
(-0.00158187 0.0219133 -0.000382144)
(-0.00106608 0.022376 -0.000331013)
(-0.000259304 0.0233325 -0.000296339)
(0.00088755 0.0249187 -0.000283006)
(0.00256409 0.0272895 -0.000280293)
(0.00472949 0.0307597 -0.000304655)
(0.0080496 0.0354729 -0.000260227)
(0.0113657 0.0425279 0.000145826)
(0.0173963 0.0510532 0.00139278)
(0.0172151 0.0644469 0.00638183)
(0.0164272 0.0686768 0.0158979)
(-0.0228654 0.0267683 0.0285246)
(-0.0370625 -0.128037 0.0202445)
(-0.0741716 -0.242666 0.0101039)
(-0.0306168 -0.320016 -0.0165166)
(0.000267551 0.0142928 -0.000640823)
(-0.000398556 0.020999 -0.000663854)
(-0.00139623 0.0217642 -0.00059446)
(-0.00177511 0.0208431 -0.000491285)
(-0.00210076 0.0202563 -0.000388216)
(-0.00165095 0.0201325 -0.000323843)
(-0.000836049 0.0204856 -0.000268639)
(0.000535997 0.0212983 -0.000232661)
(0.00242017 0.0226482 -0.00022494)
(0.00506787 0.0245573 -0.000229422)
(0.0083742 0.0272865 -0.000242896)
(0.0134981 0.0307474 -0.000333372)
(0.0186732 0.0359304 0.000149226)
(0.0289982 0.0414239 0.000872311)
(0.0333534 0.05032 0.00524381)
(0.0470481 0.0540491 0.012697)
(0.0189208 0.0102276 0.0223401)
(0.0066113 -0.119497 0.0153887)
(-0.0546903 -0.252287 0.0120204)
(-0.0248626 -0.344191 -0.0247656)
(-0.00173616 0.0139455 -0.000938934)
(-0.00374918 0.0250665 -0.000960501)
(-0.00405872 0.025809 -0.000957383)
(-0.00377506 0.0261797 -0.000954048)
(-0.00267678 0.0245448 -0.000804803)
(-0.00141015 0.0235416 -0.000670453)
(6.20579e-05 0.0226101 -0.000545383)
(0.00188927 0.0222108 -0.000439863)
(0.00415658 0.0223189 -0.00038893)
(0.00724275 0.0229263 -0.000385095)
(0.0110117 0.0241999 -0.000385622)
(0.0169866 0.0258655 -0.000558113)
(0.0227536 0.0286992 -0.000284133)
(0.0347716 0.0308733 5.43335e-05)
(0.0400598 0.0343168 0.00290497)
(0.0600664 0.0360628 0.00812617)
(0.0435048 0.00155789 0.016353)
(0.0352659 -0.0974797 0.0127256)
(-0.0433828 -0.232223 0.00677139)
(-0.0215281 -0.363394 -0.0274549)
(0.00256813 0.0248722 -0.00261677)
(0.000735012 0.0246621 -0.00249922)
(-0.00347435 0.0237673 -0.00152609)
(-0.0037574 0.0200159 -0.000979126)
(-0.00479765 0.0183833 -0.000694393)
(-0.00344906 0.017463 -0.000563889)
(-0.00197828 0.0171392 -0.000452954)
(0.000438413 0.0170353 -0.000362772)
(0.00331862 0.0172791 -0.000340183)
(0.00711649 0.0175124 -0.000367802)
(0.0114624 0.0181392 -0.00045205)
(0.0182265 0.0184538 -0.000715801)
(0.0241201 0.0191514 -0.000782153)
(0.0370178 0.018459 -0.000776597)
(0.040995 0.0163382 0.000415161)
(0.0616227 0.0126673 0.00390214)
(0.0495305 -0.0100527 0.00940294)
(0.043398 -0.0765953 0.0100743)
(-0.0382465 -0.212564 0.00693449)
(-0.00905944 -0.369684 -0.0320347)
(-0.00665142 0.0143786 -0.00124942)
(-0.0109125 0.0420446 -0.00133516)
(-0.00535371 0.0368153 -0.00173961)
(-0.00697257 0.035096 -0.00252672)
(-0.00481375 0.0295945 -0.00221745)
(-0.00293946 0.0262491 -0.00178668)
(-0.000603081 0.0231143 -0.00138741)
(0.00226456 0.0207655 -0.000981923)
(0.00542003 0.0190853 -0.000798551)
(0.00960621 0.0176004 -0.0006767)
(0.0138252 0.0166437 -0.000794351)
(0.0205444 0.0154847 -0.000975402)
(0.0252219 0.0151244 -0.00153365)
(0.0366735 0.0135448 -0.00131994)
(0.0366365 0.0135231 -0.00205861)
(0.0555686 0.00793357 0.00109426)
(0.0374619 0.000302185 0.00270349)
(0.05995 -0.0411618 0.00553449)
(-0.0100989 -0.191714 0.00913066)
(0.00529803 -0.359899 -0.0350866)
(-0.0507703 0.0555175 -0.0119807)
(-0.0282089 0.0213018 -0.00633628)
(-0.0371928 0.0229131 -0.00444917)
(-0.0189484 0.0210871 -0.00357023)
(-0.0106029 0.0170172 -0.00301336)
(0.00327367 0.014684 -0.00213028)
(0.0129942 0.0131371 -0.0016493)
(0.0245006 0.0113709 -0.00108231)
(0.0328367 0.0105669 -0.000906328)
(0.0439584 0.00895999 -0.000669717)
(0.0500728 0.00874808 -0.000845266)
(0.0632809 0.0071859 -0.000916265)
(0.0656599 0.007223 -0.00187366)
(0.0871202 0.00553877 -0.00156581)
(0.0791667 0.00353509 -0.00286331)
(0.117456 -0.00209515 -0.00231796)
(0.0894198 -0.0204627 0.00192018)
(0.13928 -0.0607108 0.00348751)
(0.0671882 -0.197187 0.0107858)
(0.0476161 -0.335679 -0.0415177)
(0.0888978 0.103946 -0.00887137)
(0.113623 0.0562596 -0.00851833)
(0.165789 0.0397053 -0.00896799)
(0.205784 0.0268497 -0.00840739)
(0.231127 0.019375 -0.0075849)
(0.259894 0.013438 -0.00712439)
(0.274795 0.00993156 -0.00621126)
(0.299553 0.00714339 -0.00593135)
(0.306033 0.00550737 -0.00514632)
(0.330718 0.00408084 -0.00521993)
(0.329551 0.00321356 -0.00405116)
(0.356881 0.00262912 -0.00494396)
(0.34762 0.00171408 -0.00329494)
(0.380123 0.00133428 -0.00515403)
(0.360018 -0.000219799 -0.00237421)
(0.397094 -0.00313109 -0.00575268)
(0.355067 -0.00922942 -0.000675025)
(0.378667 -0.0260982 -0.00588751)
(0.255027 -0.0608287 0.00032722)
(0.152469 -0.116353 -0.0549829)
(-0.000272735 0.000282072 -0.000115143)
(-0.00135457 0.000520301 -8.60808e-05)
(-0.00290034 0.000583559 -7.5806e-05)
(-0.00442144 0.000612562 -7.01416e-05)
(-0.0060111 0.000641304 -7.52614e-05)
(-0.00764312 0.000676259 -8.86627e-05)
(-0.00932024 0.000714685 -0.000111208)
(-0.011031 0.000751551 -0.000145622)
(-0.0127479 0.000779673 -0.00019606)
(-0.0144222 0.000789073 -0.0002681)
(-0.0159777 0.000766275 -0.000368571)
(-0.0173037 0.000694677 -0.000504914)
(-0.0182494 0.000556936 -0.000684088)
(-0.0186243 0.000335455 -0.000910168)
(-0.0182078 1.45853e-05 -0.00118077)
(-0.0167796 -0.000402868 -0.00147906)
(-0.0141427 -0.00087501 -0.00176868)
(-0.0104073 -0.00129943 -0.00197971)
(-0.00550473 -0.00148419 -0.00203837)
(-0.00134252 -0.000956922 -0.00153829)
(-0.000538622 0.00146202 -0.000245093)
(-0.00238417 0.00241032 -0.000241662)
(-0.00489543 0.00266207 -0.000235824)
(-0.00736466 0.00275724 -0.000226434)
(-0.00990891 0.00283144 -0.00022759)
(-0.0124749 0.00290896 -0.000237374)
(-0.0150528 0.00298136 -0.000257476)
(-0.0176146 0.00303081 -0.000291684)
(-0.0201117 0.0030317 -0.000345676)
(-0.0224689 0.00294907 -0.000426905)
(-0.024576 0.00273804 -0.000544851)
(-0.0262799 0.00234445 -0.000710383)
(-0.0273811 0.00170726 -0.000933766)
(-0.027641 0.000771032 -0.0012228)
(-0.0267841 -0.00049236 -0.00158133)
(-0.0245259 -0.00205302 -0.00198259)
(-0.0206167 -0.0037654 -0.00238005)
(-0.0151817 -0.00527822 -0.0026798)
(-0.00813922 -0.00589232 -0.00275863)
(-0.00205587 -0.00398719 -0.00203282)
(-0.000606014 0.00318992 -0.000303149)
(-0.00267156 0.00506882 -0.000312953)
(-0.00546794 0.00556253 -0.000308834)
(-0.0082067 0.00572587 -0.000296634)
(-0.0110183 0.00583148 -0.000294407)
(-0.0138432 0.00592727 -0.000300596)
(-0.0166729 0.00600035 -0.000317426)
(-0.0194811 0.00601958 -0.000349434)
(-0.0222232 0.00593952 -0.000403541)
(-0.024828 0.00569787 -0.000489378)
(-0.0271902 0.00521404 -0.00061916)
(-0.0291625 0.00439094 -0.000808249)
(-0.0305427 0.00311995 -0.00107404)
(-0.0310653 0.00130064 -0.00143265)
(-0.0304063 -0.00112226 -0.00189198)
(-0.0282037 -0.0041177 -0.00243668)
(-0.0240844 -0.00743914 -0.00301031)
(-0.0180289 -0.0104532 -0.00348758)
(-0.00988141 -0.0117418 -0.00365887)
(-0.0025706 -0.00823122 -0.0027352)
(-0.000607064 0.00487727 -0.000346273)
(-0.00270896 0.00769496 -0.000368417)
(-0.00556478 0.0084265 -0.000366259)
(-0.00835946 0.00865495 -0.000352607)
(-0.0112355 0.00879539 -0.000348553)
(-0.0141359 0.00892136 -0.000352984)
(-0.017062 0.009018 -0.000368755)
(-0.0199997 0.00904424 -0.000401287)
(-0.0229204 0.00893846 -0.000458966)
(-0.0257737 0.00861472 -0.000554036)
(-0.028475 0.0079582 -0.000703499)
(-0.0308925 0.00682508 -0.000929693)
(-0.0328294 0.00505011 -0.00126078)
(-0.0340035 0.00246545 -0.00172788)
(-0.0340391 -0.00106025 -0.00235937)
(-0.0324369 -0.0055464 -0.00316675)
(-0.028591 -0.010715 -0.00408649)
(-0.0221483 -0.0156708 -0.00495764)
(-0.0127817 -0.0180879 -0.00538665)
(-0.00355516 -0.0132414 -0.0041737)
(-0.000583807 0.00657745 -0.00037744)
(-0.00265956 0.010365 -0.000410204)
(-0.0055042 0.0113449 -0.000409883)
(-0.00829146 0.0116461 -0.000395779)
(-0.0111742 0.0118337 -0.000391577)
(-0.0141018 0.0120111 -0.000396711)
(-0.0170904 0.0121659 -0.000414773)
(-0.0201446 0.0122522 -0.000452327)
(-0.0232608 0.0121981 -0.000519715)
(-0.0264194 0.0118991 -0.000632626)
(-0.029572 0.0112107 -0.00081424)
(-0.0326224 0.00994064 -0.0010979)
(-0.0353969 0.00784745 -0.00152966)
(-0.0376079 0.004655 -0.00216774)
(-0.0388202 9.83323e-05 -0.00307582)
(-0.0383878 -0.00595799 -0.00432708)
(-0.035406 -0.0133445 -0.00590037)
(-0.0289424 -0.020983 -0.00759947)
(-0.0183591 -0.0255088 -0.00870867)
(-0.00575469 -0.0202351 -0.00720746)
(-0.000549625 0.00823994 -0.000404494)
(-0.00257337 0.0130167 -0.000447262)
(-0.00537876 0.0142558 -0.000448624)
(-0.00813208 0.0146396 -0.000434313)
(-0.010995 0.0148912 -0.000430471)
(-0.0139244 0.0151493 -0.000437224)
(-0.0169534 0.0154095 -0.000459024)
(-0.0201094 0.0156289 -0.000503753)
(-0.0234206 0.015734 -0.000584049)
(-0.0269088 0.0156122 -0.00071971)
(-0.0305787 0.0150978 -0.000941719)
(-0.0343966 0.0139567 -0.00129808)
(-0.0382538 0.0118695 -0.00186161)
(-0.0419065 0.00842425 -0.00273705)
(-0.0448978 0.00315157 -0.0040675)
(-0.0465074 -0.00435395 -0.006039)
(-0.0455709 -0.0142023 -0.00882574)
(-0.04035 -0.0254377 -0.0122138)
(-0.0294254 -0.0341314 -0.0149734)
(-0.0107856 -0.0316219 -0.0135284)
(-0.000507629 0.00984669 -0.000432506)
(-0.00246257 0.0156285 -0.000485958)
(-0.00520935 0.017137 -0.00048868)
(-0.00790597 0.0176109 -0.000473555)
(-0.0107213 0.0179406 -0.000469285)
(-0.0136188 0.0183065 -0.00047683)
(-0.0166486 0.0187199 -0.000501534)
(-0.0198627 0.019149 -0.000552588)
(-0.0233253 0.0195311 -0.000644956)
(-0.0271094 0.0197607 -0.000802956)
(-0.03129 0.0196699 -0.00106651)
(-0.0359271 0.0190024 -0.00150173)
(-0.0410324 0.0173781 -0.00221846)
(-0.0465008 0.0142583 -0.00339514)
(-0.0520153 0.0089373 -0.00530946)
(-0.0569785 0.000607555 -0.00836973)
(-0.0602308 -0.0113835 -0.0131446)
(-0.0591573 -0.0270538 -0.0194478)
(-0.0498655 -0.0443506 -0.0245431)
(-0.0202383 -0.0534739 -0.0234076)
(-0.00045869 0.0113863 -0.00046458)
(-0.00233093 0.0181884 -0.000530242)
(-0.00500118 0.019973 -0.000533643)
(-0.0076151 0.0205374 -0.000516237)
(-0.0103467 0.0209499 -0.000509534)
(-0.0131633 0.0214403 -0.000515458)
(-0.0161301 0.0220432 -0.000540173)
(-0.0193223 0.0227489 -0.00059396)
(-0.0228399 0.02352 -0.000693687)
(-0.0268109 0.0242794 -0.000867505)
(-0.0313933 0.0248883 -0.00116382)
(-0.0367715 0.0251116 -0.00166813)
(-0.0431394 0.0245693 -0.00253442)
(-0.0506591 0.0226809 -0.00403889)
(-0.0594188 0.0186255 -0.00665888)
(-0.0693574 0.0112409 -0.0111316)
(-0.0794994 -0.00151717 -0.0179735)
(-0.0849787 -0.0242149 -0.0250328)
(-0.0752094 -0.0636514 -0.0259214)
(-0.0262914 -0.101527 -0.0245688)
(-0.000404525 0.0128495 -0.000503698)
(-0.00218438 0.0206846 -0.000583757)
(-0.00476272 0.0227435 -0.00058652)
(-0.00726556 0.0233862 -0.000564395)
(-0.00986982 0.0238701 -0.000552055)
(-0.0125419 0.0244824 -0.000552456)
(-0.015357 0.025288 -0.000572273)
(-0.0184082 0.0263092 -0.000622217)
(-0.0218246 0.0275484 -0.000719805)
(-0.0257818 0.0289796 -0.000894552)
(-0.0305161 0.0305288 -0.00119872)
(-0.0363401 0.0320427 -0.00172907)
(-0.0436588 0.0332475 -0.0026717)
(-0.0529806 0.0337038 -0.00437148)
(-0.0649924 0.0327165 -0.00737731)
(-0.0803436 0.0283994 -0.0120782)
(-0.0968839 0.0139943 -0.0164475)
(-0.10417 -0.0294227 -0.0115964)
(-0.0867467 -0.114328 0.00624196)
(-0.0194751 -0.174861 -0.0042955)
(-0.000349823 0.0142386 -0.000554653)
(-0.00203824 0.0231262 -0.000653533)
(-0.00451642 0.0254533 -0.000654859)
(-0.00688024 0.0261507 -0.000625377)
(-0.00930905 0.0266717 -0.000602862)
(-0.0117627 0.0273734 -0.000592135)
(-0.0143207 0.028359 -0.000600344)
(-0.0170848 0.0296923 -0.000638297)
(-0.0202002 0.0314306 -0.000722981)
(-0.023873 0.0336258 -0.000882143)
(-0.028394 0.0363129 -0.00116414)
(-0.0341686 0.0394911 -0.0016578)
(-0.041755 0.0431063 -0.0025329)
(-0.0518865 0.0469515 -0.00402737)
(-0.0655647 0.0501239 -0.00610291)
(-0.08318 0.0474464 -0.00662523)
(-0.101949 0.0227731 0.00307374)
(-0.108305 -0.0554939 0.0342651)
(-0.0857688 -0.181233 0.0582916)
(-0.0161125 -0.228044 0.0144804)
(-0.000295464 0.015548 -0.00062098)
(-0.00190188 0.0254687 -0.000737818)
(-0.00428631 0.0280096 -0.000731325)
(-0.00649687 0.0286918 -0.000687914)
(-0.00871327 0.0291913 -0.000650299)
(-0.0108733 0.0299312 -0.000624678)
(-0.0130562 0.0310428 -0.000616066)
(-0.0153594 0.0326274 -0.000632246)
(-0.0179201 0.0347981 -0.000687303)
(-0.0209365 0.0376842 -0.000799876)
(-0.0247019 0.0414417 -0.00100011)
(-0.0296375 0.0462408 -0.00132747)
(-0.0363722 0.0523113 -0.00183503)
(-0.0457116 0.059496 -0.00229491)
(-0.059053 0.0659096 -0.00100683)
(-0.0765276 0.0612277 0.0086794)
(-0.098173 0.0224826 0.0395526)
(-0.110001 -0.0876582 0.0819591)
(-0.0827186 -0.232151 0.064818)
(-0.0193368 -0.270182 0.0132757)
(-0.000276991 0.0168968 -0.000728642)
(-0.00187482 0.0280111 -0.000887516)
(-0.00419015 0.0307961 -0.000879527)
(-0.00621125 0.0314791 -0.000824813)
(-0.00814261 0.0318499 -0.00076094)
(-0.00992776 0.0324759 -0.000705457)
(-0.011638 0.0335288 -0.000663876)
(-0.0133463 0.0351769 -0.000648386)
(-0.0151648 0.0375984 -0.000668176)
(-0.0172557 0.0410065 -0.000730315)
(-0.0198722 0.0456922 -0.00084748)
(-0.0233278 0.051965 -0.000964862)
(-0.0282316 0.0603731 -0.000930115)
(-0.0351727 0.0702592 0.000348645)
(-0.046122 0.0790591 0.00658576)
(-0.0609966 0.0709082 0.0277434)
(-0.0879035 0.0218563 0.0691902)
(-0.0977444 -0.119835 0.0864834)
(-0.070744 -0.260468 0.024107)
(-0.0157886 -0.323151 0.00657559)
(-0.000194497 0.0180835 -0.0008549)
(-0.00175118 0.0299857 -0.00101427)
(-0.00406983 0.0326977 -0.000977733)
(-0.00600395 0.0329854 -0.000885404)
(-0.00779138 0.0331326 -0.00079097)
(-0.00921069 0.0336505 -0.000712703)
(-0.010371 0.0347078 -0.000648836)
(-0.0113105 0.0364297 -0.00060672)
(-0.0121182 0.0389927 -0.000590666)
(-0.0128794 0.0426293 -0.000587773)
(-0.0137866 0.0477242 -0.000607324)
(-0.0148632 0.0545703 -0.000440401)
(-0.0169007 0.0641327 0.000186692)
(-0.0193288 0.0748288 0.00324408)
(-0.0262543 0.0859701 0.0133877)
(-0.0332837 0.0754716 0.0395934)
(-0.061323 0.0216977 0.0749723)
(-0.0555568 -0.137544 0.0593965)
(-0.0626904 -0.259337 0.00855112)
(-0.00541931 -0.359925 -0.00604399)
(-0.000473738 0.0196573 -0.00113737)
(-0.00251708 0.0335425 -0.00137804)
(-0.00486697 0.0365341 -0.00133949)
(-0.00644263 0.0370899 -0.00124463)
(-0.00758199 0.0367244 -0.00110257)
(-0.00837969 0.0366741 -0.00097113)
(-0.00886974 0.0370532 -0.000844899)
(-0.00906057 0.0381622 -0.000742636)
(-0.00894825 0.0402094 -0.000670982)
(-0.00847364 0.0434542 -0.000610718)
(-0.00779684 0.0483476 -0.000575365)
(-0.00636185 0.0549955 -0.00032875)
(-0.00559681 0.0649486 0.000604019)
(-0.00178011 0.0755187 0.00399946)
(-0.00365046 0.0876386 0.0152028)
(0.00345313 0.0773706 0.0387105)
(-0.0193781 0.0223544 0.0627891)
(-0.00581447 -0.128651 0.0366748)
(-0.052312 -0.259409 0.0179072)
(0.00885061 -0.385939 -0.0168525)
(0.000238006 0.022115 -0.00153255)
(-0.00140002 0.0348893 -0.00175406)
(-0.00443823 0.0367884 -0.00160012)
(-0.00642345 0.0354037 -0.00136751)
(-0.00824131 0.0346667 -0.00114488)
(-0.00883844 0.0344864 -0.000978999)
(-0.00884199 0.0349796 -0.000829487)
(-0.00812832 0.0361408 -0.000709867)
(-0.00682334 0.0381197 -0.000630036)
(-0.00476416 0.0410426 -0.0005582)
(-0.00228266 0.0453853 -0.000516179)
(0.00206878 0.0509943 -0.000373332)
(0.00583745 0.0592369 0.000613884)
(0.0156339 0.0675778 0.00302067)
(0.0189536 0.0762174 0.0122672)
(0.0391229 0.0689854 0.0298877)
(0.0208252 0.0176252 0.0467726)
(0.038868 -0.105352 0.026293)
(-0.0313369 -0.244519 0.0166006)
(0.0192156 -0.40091 -0.016935)
(-0.0029547 0.0207885 -0.00193786)
(-0.0067195 0.0412789 -0.00207533)
(-0.00803501 0.0442114 -0.00217189)
(-0.00899144 0.0449111 -0.00217373)
(-0.00864222 0.0424056 -0.00190643)
(-0.00823509 0.0406817 -0.00163601)
(-0.0073606 0.0391843 -0.00137048)
(-0.00601039 0.0386008 -0.00113605)
(-0.0040744 0.0389118 -0.000981725)
(-0.0011477 0.0402338 -0.000866727)
(0.00237789 0.0428746 -0.000821867)
(0.00836798 0.0467228 -0.000858962)
(0.0138541 0.0525556 -0.00019915)
(0.0264875 0.0584207 0.00135142)
(0.0316623 0.0638099 0.00729943)
(0.057804 0.0594533 0.0198242)
(0.0428406 0.0176291 0.0330205)
(0.0702109 -0.0735295 0.0203915)
(-0.019322 -0.209663 0.0114155)
(0.0334469 -0.402675 -0.0225529)
(0.00313658 0.0359116 -0.00491787)
(-0.00176624 0.0399722 -0.00504812)
(-0.0107169 0.0393747 -0.00345456)
(-0.011535 0.03399 -0.00247493)
(-0.0133218 0.0324207 -0.00196253)
(-0.0119197 0.0315155 -0.00168516)
(-0.0104711 0.0313307 -0.00143018)
(-0.00789604 0.0315064 -0.00121019)
(-0.00473994 0.0321797 -0.0010814)
(-0.000436654 0.0331831 -0.00100485)
(0.0045123 0.0349759 -0.00106471)
(0.0123643 0.0372123 -0.00127706)
(0.0193203 0.0402014 -0.00120067)
(0.034794 0.0430971 -0.000406508)
(0.0403358 0.0423642 0.00209676)
(0.0682871 0.0388281 0.0104863)
(0.0566331 0.00538571 0.0188438)
(0.0763444 -0.0522199 0.0161486)
(-0.0165648 -0.186393 0.0135709)
(0.0523648 -0.403463 -0.0247815)
(-0.00321404 0.0156444 -0.00294362)
(-0.00363535 0.0605407 -0.00328333)
(0.00274889 0.0579079 -0.00381367)
(-0.00444886 0.0558242 -0.00484278)
(-0.00576407 0.0487242 -0.00440018)
(-0.00773663 0.0444815 -0.00374462)
(-0.00786162 0.0403596 -0.00304938)
(-0.00662209 0.0375994 -0.00236485)
(-0.00419843 0.0354557 -0.00198413)
(-7.80076e-05 0.034029 -0.00167085)
(0.00486327 0.0331134 -0.00182121)
(0.0125362 0.0329216 -0.00194959)
(0.0193831 0.0335166 -0.00268324)
(0.0325723 0.0346215 -0.00185606)
(0.0365768 0.0359097 -0.00294299)
(0.0579147 0.0343591 0.00477828)
(0.0451658 0.0182032 0.00652528)
(0.0748809 -0.00488613 0.00703357)
(0.0163371 -0.162302 0.0165675)
(0.0797905 -0.39046 -0.027545)
(-0.0777177 0.0544886 -0.0164479)
(-0.0560666 0.0318347 -0.00898222)
(-0.0754625 0.039577 -0.00711985)
(-0.0531624 0.0372701 -0.00633189)
(-0.0478141 0.0322663 -0.00540279)
(-0.0321311 0.0299151 -0.00408945)
(-0.0205698 0.0274917 -0.00342364)
(-0.00735397 0.0252484 -0.00256142)
(0.00505459 0.0237885 -0.00230343)
(0.0179823 0.0219436 -0.00189499)
(0.0296885 0.020987 -0.00218487)
(0.0441323 0.019848 -0.0021958)
(0.0537319 0.0189308 -0.00404102)
(0.0744186 0.0197756 -0.00255416)
(0.0785728 0.0147969 -0.00544108)
(0.113881 0.0165297 -0.00463228)
(0.10641 -0.011504 0.00402576)
(0.15138 -0.0375505 0.000514217)
(0.117904 -0.188236 0.0168879)
(0.134133 -0.361163 -0.0363605)
(0.0832811 0.122923 -0.0123875)
(0.113146 0.0739841 -0.0121075)
(0.164758 0.056244 -0.0127538)
(0.210839 0.0425478 -0.0122372)
(0.240427 0.0339549 -0.0111525)
(0.274228 0.0273456 -0.0108906)
(0.293712 0.0225736 -0.00951704)
(0.324092 0.0192525 -0.00963146)
(0.335776 0.016214 -0.00802621)
(0.365294 0.014657 -0.00907594)
(0.370432 0.0124274 -0.00652748)
(0.401316 0.0118071 -0.00883599)
(0.399718 0.00975373 -0.0055805)
(0.433237 0.00966116 -0.00944854)
(0.424247 0.00691172 -0.00434261)
(0.458435 0.00514641 -0.0105534)
(0.43445 -0.00247201 -0.00245743)
(0.451614 -0.0170348 -0.010899)
(0.35871 -0.0540165 -0.00100158)
(0.254978 -0.117207 -0.0511857)
(-0.000290395 0.000282 -0.000152128)
(-0.00146874 0.000547195 -0.000166241)
(-0.00315991 0.000617658 -0.000165574)
(-0.00481476 0.00064729 -0.000166089)
(-0.00653604 0.000674993 -0.000177056)
(-0.0082935 0.000708467 -0.000198914)
(-0.0100899 0.000744746 -0.000234158)
(-0.0119128 0.000778386 -0.000286905)
(-0.0137331 0.000801656 -0.000362864)
(-0.0154999 0.000803609 -0.000469377)
(-0.0171339 0.000769424 -0.000615026)
(-0.01852 0.00068091 -0.000808596)
(-0.0195012 0.000519072 -0.00105779)
(-0.0198784 0.000263801 -0.0013664)
(-0.019416 -0.000105193 -0.00172927)
(-0.017877 -0.000581671 -0.00212318)
(-0.0150459 -0.0011185 -0.00250552)
(-0.0110384 -0.00159645 -0.00280042)
(-0.0057757 -0.00178827 -0.00291144)
(-0.00137315 -0.00114694 -0.00231336)
(-0.000597911 0.0015292 -0.000255676)
(-0.00266225 0.00258611 -0.0003011)