/*--------------------------------*- C++ -*----------------------------------*\
  =========                 |
  \\      /  F ield         | OpenFOAM: The Open Source CFD Toolbox
   \\    /   O peration     | Website:  https://openfoam.org
    \\  /    A nd           | Version:  9
     \\/     M anipulation  |
\*---------------------------------------------------------------------------*/
FoamFile
{
    format      ascii;
    class       volScalarField;
    location    "4";
    object      p;
}
// * * * * * * * * * * * * * * * * * * * * * * * * * * * * * * * * * * * * * //

dimensions      [0 2 -2 0 0 0 0];

internalField   nonuniform List<scalar> 
400
(
-3.53718e-09
-9.60198e-06
9.90431e-06
4.47147e-05
9.80254e-05
0.000170186
0.000261309
0.000371217
0.000499186
0.000643751
0.000802518
0.000971988
0.00114743
0.00132283
0.00149101
0.00164394
0.00177319
0.0018701
0.00193309
0.00193807
8.93257e-06
-1.41925e-06
1.74889e-05
5.06788e-05
0.000101854
0.000171538
0.00026003
0.000367345
0.000492959
0.000635618
0.000793067
0.000961899
0.0011377
0.00131441
0.00148473
0.00164039
0.00177259
0.00187217
0.0019377
0.00194283
-1.32858e-05
-2.52721e-05
-7.30691e-06
2.45757e-05
7.44545e-05
0.000143033
0.000230863
0.000338257
0.000465001
0.00061013
0.000771744
0.000946868
0.00113084
0.00131748
0.00149913
0.00166679
0.0018106
0.00191989
0.00199249
0.00199858
-5.28473e-05
-6.6678e-05
-5.00847e-05
-2.0083e-05
2.79316e-05
9.49651e-05
0.00018198
0.000289752
0.000418572
0.000567982
0.000736505
0.000921451
0.00111866
0.00132178
0.00152243
0.00171035
0.00187396
0.00200004
0.00208499
0.00209404
-0.000112688
-0.000128913
-0.000114194
-8.67084e-05
-4.11586e-05
2.38689e-05
0.000109895
0.000218339
0.000350187
0.000505712
0.000684143
0.000883324
0.00109949
0.00132629
0.00155477
0.00177308
0.00196697
0.0021193
0.00222379
0.00223837
-0.000192696
-0.000212046
-0.000199915
-0.000175949
-0.000133943
-7.19719e-05
1.22107e-05
0.000120861
0.000255897
0.000418588
0.000609158
0.000826339
0.00106723
0.00132569
0.00159228
0.00185339
0.00209118
0.00228274
0.00241709
0.00244152
-0.000292738
-0.000316112
-0.00030758
-0.000288621
-0.000251873
-0.000194782
-0.000114199
-6.81143e-06
0.0001305
0.000300333
0.000504325
0.000742536
0.00101346
0.00131186
0.00162835
0.00194766
0.00224764
0.00249717
0.00267692
0.00271923
-0.000412591
-0.000441099
-0.000437538
-0.000425663
-0.000396666
-0.000347234
-0.000273128
-0.000169758
-3.25251e-05
0.000142883
0.000360067
0.000621187
0.000926161
0.00127255
0.00165204
0.00204846
0.00243528
0.00277053
0.0030198
0.003096
-0.000551749
-0.000586752
-0.000589958
-0.000587947
-0.000570116
-0.000532269
-0.000468882
-0.000373882
-0.000240947
-6.37104e-05
0.000163909
0.000447391
0.000788252
0.00118943
0.00164542
0.00214135
0.00264739
0.00311029
0.00346739
0.00361092
-0.000709276
-0.000752448
-0.000764677
-0.000776135
-0.000773951
-0.000752926
-0.000706075
-0.000625674
-0.000503504
-0.00033092
-9.89536e-05
0.000201152
0.000577454
0.00103607
0.00157986
0.00219967
0.00286585
0.00351877
0.00404578
0.00432882
-0.000883659
-0.000937064
-0.00096103
-0.000990514
-0.00100965
-0.00101214
-0.000989351
-0.000931838
-0.000829485
-0.000671388
-0.000445596
-0.000138977
0.000263263
0.000774421
0.00141064
0.00217615
0.00304996
0.00397966
0.00477533
0.00536165
-0.00107272
-0.00113902
-0.00117768
-0.00123084
-0.00127827
-0.00131249
-0.00132304
-0.0012987
-0.00122768
-0.00109713
-0.000892178
-0.000593766
-0.000173303
0.000362064
0.0010749
0.00199111
0.00311484
0.00443311
0.00563883
0.00691103
-0.00127303
-0.00135607
-0.00141246
-0.00149662
-0.00158057
-0.00165615
-0.00171089
-0.00173174
-0.00170582
-0.00161986
-0.00145922
-0.00120673
-0.000844182
-0.000309283
0.000446843
0.0014831
0.00287725
0.00472727
0.00652044
0.00925476
-0.00148454
-0.00158128
-0.00165752
-0.00177801
-0.00191028
-0.0020415
-0.00215472
-0.00223429
-0.00226729
-0.00224114
-0.00214117
-0.00194876
-0.00163431
-0.0011418
-0.000406698
0.000637093
0.00215312
0.00454997
0.00696168
0.0123105
-0.00169996
-0.00188453
-0.00195686
-0.00215708
-0.00233122
-0.00250903
-0.00267467
-0.00281562
-0.00291878
-0.00297293
-0.00296982
-0.00289974
-0.00274911
-0.00249394
-0.00209103
-0.00140842
-0.000182657
0.00263944
0.00500173
0.0144489
-0.00193166
-0.00191855
-0.00204863
-0.00223446
-0.00251277
-0.00281517
-0.00311615
-0.0033835
-0.00359763
-0.00374923
-0.00384227
-0.0038864
-0.00389584
-0.00387959
-0.00382096
-0.0035944
-0.00354549
-0.00145389
-0.00225239
0.0113236
-0.00193068
-0.00263969
-0.00265999
-0.00318988
-0.00344974
-0.00377999
-0.00407819
-0.00434668
-0.00457943
-0.00477504
-0.00494841
-0.00513707
-0.00538792
-0.0058311
-0.00658834
-0.00751579
-0.0106178
-0.0107793
-0.0143718
0.00412302
-0.00330122
-0.00212264
-0.00230853
-0.00240745
-0.00292027
-0.00348939
-0.00408105
-0.0046132
-0.0050655
-0.00540827
-0.00569504
-0.00595327
-0.00633096
-0.00693433
-0.00835836
-0.0101252
-0.0157659
-0.0190319
-0.0213211
0.00638073
-0.000386424
-0.00379033
-0.00354317
-0.00478272
-0.00507508
-0.0056529
-0.00609866
-0.00647556
-0.0067813
-0.00701009
-0.0071235
-0.00738748
-0.00757585
-0.00841408
-0.0105351
-0.0125887
-0.0213814
-0.0250807
-0.0193879
0.026811
-0.0130298
-0.00118538
-0.00120678
-0.001919
-0.00280999
-0.00372395
-0.00465544
-0.00539977
-0.00610139
-0.00644573
-0.00685446
-0.00700647
-0.00749556
-0.00802686
-0.00935613
-0.0103916
-0.010288
-0.00129819
0.0324057
0.115666
)
;

boundaryField
{
    movingWall
    {
        type            zeroGradient;
    }
    fixedWalls
    {
        type            zeroGradient;
    }
    frontAndBack
    {
        type            empty;
    }
}


// ************************************************************************* //
