/*--------------------------------*- C++ -*----------------------------------*\
  =========                 |
  \\      /  F ield         | OpenFOAM: The Open Source CFD Toolbox
   \\    /   O peration     | Website:  https://openfoam.org
    \\  /    A nd           | Version:  9
     \\/     M anipulation  |
\*---------------------------------------------------------------------------*/
FoamFile
{
    format      ascii;
    class       surfaceScalarField;
    location    "4";
    object      phi;
}
// * * * * * * * * * * * * * * * * * * * * * * * * * * * * * * * * * * * * * //

dimensions      [0 3 -1 0 0 0 0];

internalField   nonuniform List<scalar> 
760
(
-6.04822e-06
6.04823e-06
-1.50741e-05
9.02586e-06
-2.4209e-05
9.13494e-06
-3.2921e-05
8.71201e-06
-4.10024e-05
8.08137e-06
-4.82761e-05
7.27371e-06
-5.45667e-05
6.29059e-06
-5.96993e-05
5.13257e-06
-6.35017e-05
3.80243e-06
-6.58083e-05
2.30661e-06
-6.64657e-05
6.57396e-07
-6.53379e-05
-1.12779e-06
-6.23261e-05
-3.01177e-06
-5.73825e-05
-4.9436e-06
-5.05275e-05
-6.85502e-06
-4.18683e-05
-8.65918e-06
-3.16196e-05
-1.02488e-05
-2.01565e-05
-1.14631e-05
-8.35149e-06
-1.1805e-05
-8.35149e-06
-9.32221e-06
1.53704e-05
-2.23433e-05
2.2047e-05
-3.54266e-05
2.22183e-05
-4.7849e-05
2.11343e-05
-5.93028e-05
1.95352e-05
-6.95291e-05
1.75e-05
-7.82816e-05
1.50431e-05
-8.53245e-05
1.21754e-05
-9.04337e-05
8.91159e-06
-9.33955e-05
5.26842e-06
-9.40344e-05
1.29633e-06
-9.21878e-05
-2.97437e-06
-8.77368e-05
-7.46275e-06
-8.06405e-05
-1.20399e-05
-7.09442e-05
-1.65513e-05
-5.88047e-05
-2.07987e-05
-4.45175e-05
-2.4536e-05
-2.85902e-05
-2.73904e-05
-1.21673e-05
-2.8228e-05
-2.05188e-05
-1.0073e-05
2.54434e-05
-2.40988e-05
3.60728e-05
-3.81738e-05
3.62933e-05
-5.15331e-05
3.44936e-05
-6.38552e-05
3.18573e-05
-7.48693e-05
2.85141e-05
-8.43179e-05
2.44917e-05
-9.19547e-05
1.98123e-05
-9.7545e-05
1.45019e-05
-0.000100873
8.59665e-06
-0.000101732
2.15497e-06
-9.99176e-05
-4.78871e-06
-9.53028e-05
-1.20775e-05
-8.78164e-05
-1.95264e-05
-7.74705e-05
-2.68972e-05
-6.43979e-05
-3.38713e-05
-4.88887e-05
-4.00451e-05
-3.14817e-05
-4.47974e-05
-1.34368e-05
-4.62728e-05
-3.39556e-05
-1.06013e-05
3.60447e-05
-2.54045e-05
5.0876e-05
-4.02654e-05
5.11541e-05
-5.43913e-05
4.86195e-05
-6.74551e-05
4.49211e-05
-7.91828e-05
4.02418e-05
-8.93134e-05
3.46223e-05
-9.75947e-05
2.80936e-05
-0.000103782
2.0689e-05
-0.000107637
1.24517e-05
-0.000108935
3.45304e-06
-0.000107442
-6.28125e-06
-0.000102955
-1.65652e-05
-9.53344e-05
-2.71467e-05
-8.45318e-05
-3.76998e-05
-7.06233e-05
-4.77798e-05
-5.38644e-05
-5.68041e-05
-3.48207e-05
-6.38411e-05
-1.49069e-05
-6.61866e-05
-4.88625e-05
-1.1283e-05
4.73277e-05
-2.70895e-05
6.66825e-05
-4.29708e-05
6.70354e-05
-5.8096e-05
6.37447e-05
-7.21316e-05
5.89568e-05
-8.48019e-05
5.29121e-05
-9.58442e-05
4.56646e-05
-0.000105002
3.72517e-05
-0.000112021
2.77079e-05
-0.000116643
1.70736e-05
-0.000118604
5.41389e-06
-0.000117626
-7.25938e-06
-0.000113422
-2.07692e-05
-0.000105752
-3.48163e-05
-9.44485e-05
-4.90036e-05
-7.94795e-05
-6.27488e-05
-6.103e-05
-7.52535e-05
-3.96818e-05
-8.51893e-05
-1.70772e-05
-8.87911e-05
-6.59398e-05
-1.21652e-05
5.94929e-05
-2.92645e-05
8.37818e-05
-4.6458e-05
8.42289e-05
-6.28637e-05
8.01504e-05
-7.81418e-05
7.42349e-05
-9.20167e-05
6.6787e-05
-0.000104228
5.78759e-05
-0.00011452
4.75434e-05
-0.000122631
3.58193e-05
-0.000128285
2.2728e-05
-0.000131182
8.31034e-06
-0.000130986
-7.45515e-06
-0.000127296
-2.44596e-05
-0.000119732
-4.238e-05
-0.000107947
-6.07885e-05
-9.17199e-05
-7.89758e-05
-7.10901e-05
-9.58834e-05
-4.66068e-05
-0.000109673
-2.02263e-05
-0.000115172
-8.61661e-05
-1.32593e-05
7.27523e-05
-3.196e-05
0.000102482
-5.07708e-05
0.00010304
-6.87468e-05
9.81264e-05
-8.5542e-05
9.103e-05
-0.000100885
8.21305e-05
-0.000114526
7.15165e-05
-0.000126218
5.92351e-05
-0.000135703
4.53049e-05
-0.000142697
2.97212e-05
-0.000146863
1.24764e-05
-0.000147814
-6.50362e-06
-0.000145004
-2.72699e-05
-0.000137868
-4.95159e-05
-0.000125796
-7.28609e-05
-0.000108247
-9.65241e-05
-8.49723e-05
-0.000119159
-5.6364e-05
-0.000138281
-2.47869e-05
-0.000146749
-0.000110953
-1.45777e-05
8.733e-05
-3.52084e-05
0.000123113
-5.59546e-05
0.000123786
-7.57948e-05
0.000117967
-9.4379e-05
0.000109614
-0.000111448
9.91996e-05
-0.000126772
8.68402e-05
-0.000140129
7.2592e-05
-0.000151284
5.64599e-05
-0.000159959
3.83968e-05
-0.000165803
1.832e-05
-0.000168391
-3.91527e-06
-0.000167013
-2.86481e-05
-0.000160877
-5.56524e-05
-0.000149003
-8.47347e-05
-0.000130347
-0.00011518
-0.000104094
-0.000145411
-7.02073e-05
-0.000172168
-3.15408e-05
-0.000185415
-0.000142494
-1.61404e-05
0.00010347
-3.90589e-05
0.000146032
-6.20747e-05
0.000146802
-8.40757e-05
0.000139968
-0.000104712
0.00013025
-0.000123746
0.000118234
-0.000140985
0.000104079
-0.000156255
8.78618e-05
-0.00016937
6.95753e-05
-0.000180094
4.91208e-05
-0.000188081
2.63069e-05
-0.000192955
9.58755e-07
-0.000193788
-2.78151e-05
-0.000189578
-5.98625e-05
-0.000178856
-9.54561e-05
-0.000159824
-0.000134212
-0.000130655
-0.00017458
-9.02567e-05
-0.000212566
-4.19945e-05
-0.000233677
-0.000184488
-1.79807e-05
0.000121451
-4.35881e-05
0.000171639
-6.92289e-05
0.000172443
-9.36877e-05
0.000164426
-0.000116621
0.000153183
-0.000137826
0.000139439
-0.000157169
0.000123422
-0.000174554
0.000105247
-0.000189886
8.49081e-05
-0.000203028
6.22626e-05
-0.000213732
3.7011e-05
-0.000221505
8.73121e-06
-0.000225666
-2.36533e-05
-0.000224808
-6.07208e-05
-0.000216916
-0.000103348
-0.000199162
-0.000151966
-0.000168066
-0.000205676
-0.000120228
-0.000260404
-5.93206e-05
-0.000294585
-0.000243809
-2.01543e-05
0.000141605
-4.89176e-05
0.000200402
-7.75655e-05
0.00020109
-0.000104776
0.000191637
-0.000130221
0.000178628
-0.00015375
0.000162967
-0.000175313
0.000144986
-0.000194929
0.000124862
-0.000212641
0.000102621
-0.000228473
7.80939e-05
-0.000242343
5.08817e-05
-0.000253951
2.03388e-05
-0.00026276
-1.48442e-05
-0.000267238
-5.62434e-05
-0.000264884
-0.000105702
-0.000251632
-0.000165218
-0.000221522
-0.000235785
-0.000166848
-0.000315079
-9.07741e-05
-0.000370658
-0.000334583
-2.27576e-05
0.000164363
-5.52534e-05
0.000232898
-8.73167e-05
0.000233154
-0.000117562
0.000221883
-0.000145688
0.000206754
-0.000171614
0.000188894
-0.000195407
0.000168779
-0.000217237
0.000146692
-0.000237346
0.00012273
-0.000256003
9.67513e-05
-0.000273434
6.83128e-05
-0.00028972
3.66243e-05
-0.000304345
-2.19457e-07
-0.000316829
-4.37587e-05
-0.000324137
-9.83947e-05
-0.000321136
-0.00016822
-0.000298739
-0.000258182
-0.0002419
-0.000371918
-0.000150221
-0.000462337
-0.000484804
-2.5896e-05
0.000190259
-6.28567e-05
0.000269859
-9.87807e-05
0.000269078
-0.000132366
0.000255468
-0.000163291
0.000237678
-0.000191581
0.000217184
-0.000217461
0.000194659
-0.000241284
0.000170515
-0.000263527
0.000144973
-0.000284749
0.000117974
-0.000305554
8.91178e-05
-0.000326619
5.76886e-05
-0.000349168
2.23294e-05
-0.000372578
-2.03483e-05
-0.000395051
-7.59215e-05
-0.00041154
-0.00015173
-0.000411026
-0.000258697
-0.000366525
-0.000416419
-0.000269153
-0.000559709
-0.000753957
-3.06062e-05
0.000220865
-7.28773e-05
0.00031213
-0.00011277
0.000308971
-0.000149674
0.000292372
-0.000183343
0.000271347
-0.000213861
0.000247702
-0.000241554
0.000222352
-0.000266968
0.000195928
-0.000290922
0.000168927
-0.000314499
0.000141551
-0.000338991
0.00011361
-0.000365667
8.43645e-05
-0.000395816
5.24783e-05
-0.000430814
1.465e-05
-0.000473459
-3.32766e-05
-0.000521973
-0.000103217
-0.000569287
-0.000211382
-0.00057129
-0.000414416
-0.000487565
-0.000643435
-0.00124152
-3.14872e-05
0.000252352
-8.2823e-05
0.000363466
-0.000128254
0.000354402
-0.000170809
0.000334928
-0.000207503
0.00030804
-0.000239644
0.000279843
-0.000268171
0.000250879
-0.000294067
0.000221824
-0.000318271
0.00019313
-0.00034177
0.00016505
-0.000366206
0.000138046
-0.000394292
0.00011245
-0.000430222
8.84084e-05
-0.000480492
6.49199e-05
-0.00055195
3.81815e-05
-0.000649516
-5.65132e-06
-0.000776652
-8.4246e-05
-0.000852407
-0.000338661
-0.000758343
-0.000737498
-0.00199986
-6.16237e-05
0.000313976
-0.000107966
0.000409808
-0.000153749
0.000400185
-0.000193244
0.000374422
-0.000230284
0.000345081
-0.000263946
0.000313505
-0.000294347
0.000281279
-0.000321712
0.00024919
-0.000346979
0.000218397
-0.000371498
0.000189569
-0.000397666
0.000164215
-0.000428325
0.000143109
-0.000468789
0.000128873
-0.000526964
0.000123095
-0.000617966
0.000129184
-0.000747092
0.000123474
-0.000929904
9.85657e-05
-0.00103818
-0.000230389
-0.000806608
-0.000969065
-0.00280647
-1.48882e-05
0.000328864
-0.000106423
0.000501343
-0.000174502
0.000468264
-0.000231683
0.000431603
-0.000274576
0.000387974
-0.000308097
0.000347026
-0.000334465
0.000307647
-0.000355953
0.000270678
-0.000374401
0.000236845
-0.000390451
0.000205619
-0.000405974
0.000179738
-0.000423209
0.000160344
-0.000447143
0.000152807
-0.000488429
0.000164381
-0.000571298
0.000212052
-0.000702443
0.000254619
-0.000904651
0.000300774
-0.000990025
-0.000145016
-0.000576762
-0.00138233
-0.00338324
-8.84825e-05
0.000417347
-0.000128905
0.000541765
-0.000181433
0.000520792
-0.000245916
0.000496087
-0.000289631
0.000431689
-0.000322204
0.000379599
-0.000345096
0.000330539
-0.000360284
0.000285866
-0.000371121
0.000247681
-0.000377266
0.000211764
-0.000383885
0.000186357
-0.000388787
0.000165247
-0.000398862
0.000162882
-0.000409685
0.000175204
-0.000431413
0.00023378
-0.000450628
0.000273834
-0.000434339
0.000284486
-0.000409321
-0.000170034
-8.7782e-05
-0.00170387
-0.00347102
-0.000583136
0.00100048
-0.000593626
0.000552255
-0.000554824
0.000481991
-0.000453569
0.000394831
-0.000349692
0.000327811
-0.000244992
0.0002749
-0.00014757
0.000233118
-5.83056e-05
0.000196601
2.15536e-05
0.000167822
9.20043e-05
0.000141313
0.000159254
0.000119107
0.000216707
0.000107793
0.000292702
8.68869e-05
0.000366413
0.000101493
0.000521221
7.89722e-05
0.000703107
9.19483e-05
0.000979126
8.46663e-06
0.00114697
-0.000337876
0.000832805
-0.0013897
-0.00263821
0.00100048
0.00155274
0.00203473
0.00242956
0.00275737
0.00303227
0.00326539
0.00346199
0.00362981
0.00377112
0.00389023
0.00399803
0.00408491
0.00418641
0.00426538
0.00435733
0.00436579
0.00402792
0.00263821
)
;

boundaryField
{
    movingWall
    {
        type            calculated;
        value           uniform 0;
    }
    fixedWalls
    {
        type            calculated;
        value           uniform 0;
    }
    frontAndBack
    {
        type            empty;
        value           nonuniform List<scalar> 0();
    }
}


// ************************************************************************* //
