/*--------------------------------*- C++ -*----------------------------------*\
  =========                 |
  \\      /  F ield         | OpenFOAM: The Open Source CFD Toolbox
   \\    /   O peration     | Website:  https://openfoam.org
    \\  /    A nd           | Version:  9
     \\/     M anipulation  |
\*---------------------------------------------------------------------------*/
FoamFile
{
    format      ascii;
    class       volVectorField;
    location    "4";
    object      U;
}
// * * * * * * * * * * * * * * * * * * * * * * * * * * * * * * * * * * * * * //

dimensions      [0 1 -1 0 0 0 0];

internalField   nonuniform List<vector> 
400
(
(-0.00023809 0.000235794 0)
(-0.00100423 0.000370858 0)
(-0.00198207 0.000377637 0)
(-0.00286828 0.00036166 0)
(-0.0037109 0.000337408 0)
(-0.00448199 0.000306014 0)
(-0.00516314 0.000267276 0)
(-0.00573703 0.000220961 0)
(-0.00618628 0.000166953 0)
(-0.00649393 0.000105355 0)
(-0.00664402 3.68756e-05 0)
(-0.00662191 -3.81877e-05 0)
(-0.00641558 -0.000118487 0)
(-0.00601757 -0.000201645 0)
(-0.00542627 -0.000284547 0)
(-0.00464761 -0.000363272 0)
(-0.00369658 -0.000432968 0)
(-0.00261752 -0.000486464 0)
(-0.00137105 -0.000501382 0)
(-0.000343562 -0.000344232 0)
(-0.000385877 0.00100709 0)
(-0.00151938 0.00147473 0)
(-0.00291343 0.00148977 0)
(-0.00418255 0.00141918 0)
(-0.00538118 0.00131434 0)
(-0.00647021 0.0011804 0)
(-0.00742345 0.00101795 0)
(-0.00821709 0.000827373 0)
(-0.00882809 0.000609417 0)
(-0.00923441 0.000365355 0)
(-0.00941682 9.68783e-05 0)
(-0.00935809 -0.000192737 0)
(-0.00904367 -0.000497077 0)
(-0.00846555 -0.000808108 0)
(-0.00762362 -0.0011151 0)
(-0.00652734 -0.00140429 0)
(-0.00519818 -0.00165871 0)
(-0.00369386 -0.0018528 0)
(-0.0019713 -0.00190806 0)
(-0.000516536 -0.00136732 0)
(-0.000417682 0.00203876 0)
(-0.00164051 0.00290051 0)
(-0.00314088 0.00291994 0)
(-0.0045059 0.00277579 0)
(-0.00579516 0.0025639 0)
(-0.00696729 0.00229476 0)
(-0.00799495 0.0019705 0)
(-0.00885326 0.00159286 0)
(-0.00951814 0.00116398 0)
(-0.00996716 0.000686835 0)
(-0.0101793 0.000165398 0)
(-0.0101334 -0.00039367 0)
(-0.00981273 -0.000979976 0)
(-0.00920735 -0.0015785 0)
(-0.00831381 -0.00216886 0)
(-0.00713855 -0.00272518 0)
(-0.0057011 -0.00321546 0)
(-0.00406253 -0.00359081 0)
(-0.00217495 -0.00370364 0)
(-0.000572042 -0.00270863 0)
(-0.000438486 0.00306295 0)
(-0.00172776 0.0043303 0)
(-0.00331253 0.00435514 0)
(-0.00475445 0.00413923 0)
(-0.00611926 0.00382348 0)
(-0.00736426 0.0034234 0)
(-0.00846177 0.00294234 0)
(-0.00938649 0.00238293 0)
(-0.0101136 0.00174813 0)
(-0.0106191 0.00104188 0)
(-0.0108799 0.000270262 0)
(-0.010873 -0.000557998 0)
(-0.0105757 -0.00143044 0)
(-0.00997102 -0.00232631 0)
(-0.00904897 -0.00321635 0)
(-0.00780991 -0.00406182 0)
(-0.00626783 -0.00481343 0)
(-0.00448613 -0.00539497 0)
(-0.00241127 -0.00558178 0)
(-0.000636075 -0.00411028 0)
(-0.0004654 0.00415302 0)
(-0.00184023 0.00585467 0)
(-0.00353424 0.0058862 0)
(-0.00507628 0.00559618 0)
(-0.0065398 0.00517334 0)
(-0.00788059 0.00463863 0)
(-0.00907082 0.00399669 0)
(-0.010085 0.00325084 0)
(-0.0108977 0.00240446 0)
(-0.0114835 0.00146161 0)
(-0.0118165 0.000428235 0)
(-0.0118694 -0.000686023 0)
(-0.0116135 -0.00186678 0)
(-0.0110223 -0.00308951 0)
(-0.0100746 -0.0043176 0)
(-0.0087591 -0.00549898 0)
(-0.00707939 -0.00656351 0)
(-0.00509969 -0.00739999 0)
(-0.0027584 -0.00769031 0)
(-0.000731849 -0.00569566 0)
(-0.000500346 0.00532138 0)
(-0.00198563 0.00749404 0)
(-0.00382026 0.00753419 0)
(-0.00549087 0.00716746 0)
(-0.00708073 0.00663426 0)
(-0.00854386 0.00596154 0)
(-0.00985268 0.00515528 0)
(-0.0109819 0.00421931 0)
(-0.0119061 0.00315679 0)
(-0.0125984 0.00197081 0)
(-0.0130305 0.000665807 0)
(-0.0131707 -0.000750438 0)
(-0.0129816 -0.00226513 0)
(-0.012424 -0.00385219 0)
(-0.0114606 -0.00546956 0)
(-0.0100612 -0.00705242 0)
(-0.00821047 -0.00850612 0)
(-0.00596784 -0.00967364 0)
(-0.00325869 -0.0101167 0)
(-0.0008731 -0.00754127 0)
(-0.00054366 0.00658801 0)
(-0.00216595 0.00927739 0)
(-0.00417458 0.00932811 0)
(-0.00600322 0.00888096 0)
(-0.00774766 0.00823303 0)
(-0.00935993 0.00741812 0)
(-0.0108133 0.00644383 0)
(-0.0120838 0.00531443 0)
(-0.0131465 0.00403218 0)
(-0.0139747 0.0025979 0)
(-0.0145379 0.00101228 0)
(-0.0148005 -0.000721593 0)
(-0.0147154 -0.00259699 0)
(-0.0142269 -0.0045914 0)
(-0.0132755 -0.00666239 0)
(-0.0118013 -0.00873544 0)
(-0.00975544 -0.0106889 0)
(-0.00717901 -0.0123057 0)
(-0.00397571 -0.0129834 0)
(-0.00108251 -0.00976242 0)
(-0.000595708 0.0079747 0)
(-0.00238336 0.0112366 0)
(-0.00460142 0.0112993 0)
(-0.00661832 0.0107661 0)
(-0.00854565 0.00999731 0)
(-0.0103333 0.00903477 0)
(-0.0119565 0.00788842 0)
(-0.0133937 0.00656312 0)
(-0.0146227 0.0050598 0)
(-0.0156183 0.00337558 0)
(-0.01635 0.00150498 0)
(-0.0167799 -0.000557265 0)
(-0.0168514 -0.002818 0)
(-0.0164895 -0.00526492 0)
(-0.0156054 -0.00786514 0)
(-0.0140953 -0.010543 0)
(-0.0118539 -0.0131522 0)
(-0.00887244 -0.0154025 0)
(-0.00501949 -0.0164523 0)
(-0.00140356 -0.0125306 0)
(-0.000657203 0.0095046 0)
(-0.00264124 0.0134058 0)
(-0.00510704 0.0134802 0)
(-0.00734324 0.0128525 0)
(-0.00948138 0.011954 0)
(-0.0114691 0.0108366 0)
(-0.0132852 0.00951373 0)
(-0.0149126 0.00799144 0)
(-0.0163342 0.00626933 0)
(-0.0175296 0.00433962 0)
(-0.0184708 0.00218746 0)
(-0.0191235 -0.000207702 0)
(-0.0194231 -0.00286378 0)
(-0.0192741 -0.00580106 0)
(-0.0185545 -0.00901076 0)
(-0.0170988 -0.0124336 0)
(-0.014713 -0.0159121 0)
(-0.0112721 -0.019083 0)
(-0.00659037 -0.020739 0)
(-0.00192502 -0.0161206 0)
(-0.000729478 0.0112033 0)
(-0.0029451 0.0158225 0)
(-0.00570094 0.0159053 0)
(-0.00818837 0.0151701 0)
(-0.0105642 0.014129 0)
(-0.0127739 0.0128465 0)
(-0.014802 0.0113414 0)
(-0.0166384 0.00962255 0)
(-0.0182748 0.00768893 0)
(-0.0197004 0.00552771 0)
(-0.0208974 0.00311298 0)
(-0.0218312 0.000405261 0)
(-0.0224449 -0.00263936 0)
(-0.0226365 -0.00608593 0)
(-0.0222391 -0.00997549 0)
(-0.0210113 -0.0142999 0)
(-0.0186366 -0.0189271 0)
(-0.014744 -0.0234569 0)
(-0.00907272 -0.0261201 0)
(-0.00283921 -0.0210091 0)
(-0.000815016 0.0131011 0)
(-0.00330395 0.0185303 0)
(-0.00639788 0.0186117 0)
(-0.00916929 0.0177487 0)
(-0.0118079 0.0165456 0)
(-0.0142571 0.0150829 0)
(-0.0165095 0.0133874 0)
(-0.0185655 0.0114732 0)
(-0.0204295 0.00934049 0)
(-0.0221059 0.00697253 0)
(-0.0235935 0.00433197 0)
(-0.024876 0.00135828 0)
(-0.0259146 -0.00203818 0)
(-0.0266105 -0.00595881 0)
(-0.0267703 -0.0105518 0)
(-0.0260722 -0.0159169 0)
(-0.0240558 -0.0220304 0)
(-0.0198866 -0.0285566 0)
(-0.013245 -0.0328742 0)
(-0.00459571 -0.0281319 0)
(-0.000918234 0.0152293 0)
(-0.00373338 0.0215757 0)
(-0.00722181 0.0216371 0)
(-0.0103099 0.0206179 0)
(-0.0132332 0.0192244 0)
(-0.0159327 0.0175583 0)
(-0.0184122 0.0156592 0)
(-0.0206859 0.0135496 0)
(-0.0227761 0.0112349 0)
(-0.0247097 0.00869868 0)
(-0.0265125 0.00589821 0)
(-0.0282023 0.00275707 0)
(-0.0297632 -0.000850917 0)
(-0.0311516 -0.00514202 0)
(-0.0322014 -0.0103767 0)
(-0.0325257 -0.0168445 0)
(-0.031547 -0.0247954 0)
(-0.0276459 -0.0341956 0)
(-0.02077 -0.0411716 0)
(-0.00839128 -0.0393223 0)
(-0.00104414 0.0176849 0)
(-0.00425108 0.0250425 0)
(-0.00820383 0.0250274 0)
(-0.0116426 0.0237955 0)
(-0.0148708 0.0221712 0)
(-0.0178231 0.0202717 0)
(-0.0205189 0.01815 0)
(-0.0229906 0.0158406 0)
(-0.0252811 0.0133593 0)
(-0.0274431 0.0106931 0)
(-0.0295351 0.00778813 0)
(-0.0316246 0.00453932 0)
(-0.0338127 0.00078666 0)
(-0.0361362 -0.00371762 0)
(-0.0384795 -0.00931878 0)
(-0.040557 -0.0166357 0)
(-0.0418325 -0.0264418 0)
(-0.0395244 -0.0396554 0)
(-0.0348155 -0.0506472 0)
(-0.0169955 -0.0580565 0)
(-0.00125986 0.0202506 0)
(-0.00499367 0.0290602 0)
(-0.00943995 0.0288799 0)
(-0.0132323 0.0274729 0)
(-0.0167602 0.0255134 0)
(-0.0199549 0.0232773 0)
(-0.0228443 0.0208618 0)
(-0.0254777 0.0183234 0)
(-0.0279251 0.0156886 0)
(-0.0302836 0.0129619 0)
(-0.0326715 0.0101295 0)
(-0.0352118 0.00712793 0)
(-0.0380314 0.00380355 0)
(-0.041275 -0.000145932 0)
(-0.0451574 -0.00538682 0)
(-0.0498128 -0.0129472 0)
(-0.0553092 -0.0241913 0)
(-0.0572199 -0.0422326 0)
(-0.0595375 -0.0593789 0)
(-0.0338156 -0.091391 0)
(-0.00110168 0.0241112 0)
(-0.00540707 0.0327812 0)
(-0.0108626 0.0324857 0)
(-0.0150663 0.0303988 0)
(-0.0190663 0.0282529 0)
(-0.0224733 0.0258927 0)
(-0.0254719 0.0233855 0)
(-0.0281629 0.0207472 0)
(-0.0306404 0.0180175 0)
(-0.0329962 0.0152293 0)
(-0.0353574 0.0124023 0)
(-0.0379329 0.00950703 0)
(-0.0410606 0.00644163 0)
(-0.0452874 0.00291922 0)
(-0.0512462 -0.00164633 0)
(-0.0595196 -0.00840676 0)
(-0.0719962 -0.0188411 0)
(-0.0809087 -0.0398506 0)
(-0.0946923 -0.0664182 0)
(-0.0494837 -0.152342 0)
(-0.00340281 0.0258555 0)
(-0.00872532 0.0411536 0)
(-0.0130792 0.039427 0)
(-0.0175771 0.0378931 0)
(-0.0212905 0.0344929 0)
(-0.0248457 0.0310446 0)
(-0.0280052 0.0275527 0)
(-0.0308554 0.024185 0)
(-0.0334475 0.0210231 0)
(-0.0359003 0.0181088 0)
(-0.038392 0.0155139 0)
(-0.0411653 0.0133055 0)
(-0.0446063 0.0115872 0)
(-0.049347 0.0104498 0)
(-0.0564672 0.00966482 0)
(-0.0668628 0.00753925 0)
(-0.0850291 0.00310955 0)
(-0.0966479 -0.0256081 0)
(-0.119949 -0.0793912 0)
(-0.0310459 -0.246012 0)
(0.00144686 0.0384285 0)
(-0.00474929 0.0388692 0)
(-0.0157474 0.0389629 0)
(-0.0199564 0.0348638 0)
(-0.0258112 0.0326543 0)
(-0.0293009 0.0300179 0)
(-0.0322396 0.0273562 0)
(-0.0345803 0.0245833 0)
(-0.0365378 0.0218159 0)
(-0.0382215 0.0191089 0)
(-0.0397438 0.0167005 0)
(-0.0412891 0.0146678 0)
(-0.0431516 0.0134822 0)
(-0.0460727 0.0132986 0)
(-0.0521004 0.0151134 0)
(-0.0600373 0.0159005 0)
(-0.0845228 0.0150599 0)
(-0.091076 -0.0231191 0)
(-0.117988 -0.121148 0)
(0.0133838 -0.32742 0)
(-0.00257391 0.0243818 0)
(-0.0140725 0.0642886 0)
(-0.01267 0.0570707 0)
(-0.0229699 0.0546251 0)
(-0.0268517 0.0476958 0)
(-0.0310472 0.0418393 0)
(-0.0335752 0.036227 0)
(-0.0353854 0.0312279 0)
(-0.0366115 0.0268985 0)
(-0.0373685 0.0231153 0)
(-0.0379809 0.0201434 0)
(-0.0383951 0.018254 0)
(-0.039197 0.0178319 0)
(-0.0396589 0.0205241 0)
(-0.0431273 0.0284301 0)
(-0.0404875 0.0361896 0)
(-0.0533977 0.0468668 0)
(-0.031231 -0.00612704 0)
(-0.0583756 -0.158917 0)
(0.0459031 -0.360297 0)
(-0.0717392 0.0654288 0)
(-0.0492968 0.0399323 0)
(-0.0656433 0.043494 0)
(-0.0478156 0.0401191 0)
(-0.041344 0.0348099 0)
(-0.029316 0.0306393 0)
(-0.0194445 0.0269525 0)
(-0.00994738 0.0234783 0)
(-0.00170855 0.0205944 0)
(0.00604763 0.017489 0)
(0.0126275 0.0157027 0)
(0.0190767 0.0134364 0)
(0.025062 0.0136402 0)
(0.0341976 0.0131485 0)
(0.0378717 0.0163056 0)
(0.0703461 0.0161391 0)
(0.0640674 0.00517852 0)
(0.129228 -0.0327274 0)
(0.0872276 -0.200161 0)
(0.0979964 -0.362636 0)
(0.0888778 0.12307 0)
(0.121841 0.0747937 0)
(0.179758 0.0565836 0)
(0.225358 0.0427576 0)
(0.260675 0.0339836 0)
(0.290867 0.0271441 0)
(0.315049 0.0219937 0)
(0.338552 0.0177631 0)
(0.353204 0.0145155 0)
(0.37437 0.0121053 0)
(0.378383 0.00915287 0)
(0.40225 0.00916572 0)
(0.395134 0.00448586 0)
(0.425271 0.00819393 0)
(0.407957 0.000790123 0)
(0.445105 0.00400026 0)
(0.414555 -0.00241136 0)
(0.441474 -0.0254214 0)
(0.343186 -0.0516094 0)
(0.225382 -0.120299 0)
)
;

boundaryField
{
    movingWall
    {
        type            fixedValue;
        value           uniform (1 0 0);
    }
    fixedWalls
    {
        type            noSlip;
    }
    frontAndBack
    {
        type            empty;
    }
}


// ************************************************************************* //
