/*--------------------------------*- C++ -*----------------------------------*\
  =========                 |
  \\      /  F ield         | OpenFOAM: The Open Source CFD Toolbox
   \\    /   O peration     | Website:  https://openfoam.org
    \\  /    A nd           | Version:  9
     \\/     M anipulation  |
\*---------------------------------------------------------------------------*/
FoamFile
{
    format      ascii;
    class       volScalarField;
    location    "1";
    object      p;
}
// * * * * * * * * * * * * * * * * * * * * * * * * * * * * * * * * * * * * * //

dimensions      [0 2 -2 0 0 0 0];

internalField   nonuniform List<scalar> 
400
(
-3.43298e-10
3.47344e-05
0.000116952
0.000242215
0.000407536
0.000608859
0.00084126
0.00109907
0.001376
0.00166527
0.00195975
0.00225208
0.00253483
0.00280067
0.00304253
0.00325382
0.0034286
0.00356187
0.0036498
0.00368739
-3.42131e-05
1.10096e-06
8.48227e-05
0.00021234
0.000380631
0.000585568
0.000822143
0.0010846
0.00136654
0.00166111
0.00196106
0.00225891
0.00254712
0.00281822
0.00306499
0.00328067
0.00345917
0.00359534
0.00368524
0.00372364
-0.000118287
-8.14708e-05
5.96614e-06
0.000139124
0.000314825
0.000528742
0.000775642
0.00104953
0.0013438
0.00165132
0.0019646
0.00227589
0.00257736
0.00286123
0.00311991
0.00334627
0.00353384
0.00367707
0.00377171
0.00381213
-0.000251346
-0.000212069
-0.00011872
2.33995e-05
0.000210851
0.00043898
0.000702199
0.000994146
0.00130783
0.00163575
0.00197003
0.00230252
0.00262493
0.00292898
0.00320653
0.00344986
0.00365186
0.00380637
0.00390861
0.00395233
-0.000436911
-0.000394157
-0.000292501
-0.000137822
6.60572e-05
0.000314004
0.000599921
0.000916929
0.00125753
0.00161371
0.00197711
0.00233901
0.00269055
0.00302276
0.00332678
0.003594
0.00381643
0.00398697
0.00410006
0.00414855
-0.000679754
-0.000632384
-0.000519747
-0.000348519
-0.000123071
0.0001508
0.000466307
0.000815896
0.00119142
0.00158425
0.00198541
0.00238554
0.00277507
0.00314421
0.0034831
0.00378204
0.00403175
0.00422387
0.00435165
0.00440665
-0.000986182
-0.000932877
-0.000806183
-0.000613864
-0.000361065
-5.44843e-05
0.000298181
0.00068852
0.0011076
0.00154609
0.00199431
0.00244223
0.00287945
0.00329523
0.00367852
0.0040182
0.00430331
0.00452369
0.00467088
0.00473458
-0.00136431
-0.00130348
-0.00115908
-0.000940351
-0.000653539
-0.00030657
9.16756e-05
0.000531727
0.00100374
0.00149759
0.00200292
0.00250899
0.00300457
0.00347788
0.00391652
0.00430758
0.00463794
0.00489491
0.00506754
0.0051428
-0.00182444
-0.00175406
-0.00158746
-0.00133593
-0.00100725
-0.000611045
-0.000157725
0.000341936
0.00087706
0.00143673
0.00200993
0.00258536
0.00315103
0.00369415
0.00420083
0.00465605
0.00504387
0.00534814
0.00555421
0.00564504
-0.00237958
-0.00229698
-0.00210248
-0.00181018
-0.00143014
-0.000974306
-0.000455092
0.000115151
0.000724421
0.00136106
0.00201355
0.0026703
0.00331886
0.00394556
0.00453506
0.00506995
0.00553074
0.0058965
0.00614707
0.00625934
-0.00304633
-0.00294769
-0.00271779
-0.00237449
-0.00193131
-0.00140342
-0.000805856
-0.000152843
0.000542435
0.00126774
0.00201139
0.00276192
0.00350696
0.00423253
0.00492205
0.00555557
0.00610934
0.00655601
0.0068669
0.00700977
-0.00384613
-0.00372575
-0.00345017
-0.00304224
-0.00252091
-0.00190582
-0.00121538
-0.000466056
0.000327788
0.00115368
0.00200035
0.00285716
0.00371267
0.0045535
0.00536273
0.00611814
0.00679105
0.0073459
0.00774058
0.00792919
-0.00480711
-0.00465635
-0.0043205
-0.00382893
-0.00320983
-0.00248863
-0.00168818
-0.000827617
7.77531e-05
0.00101582
0.00197666
0.00295145
0.00393097
0.00490388
0.00585445
0.00675977
0.00758617
0.0082886
0.00880272
0.00906432
-0.00596992
-0.00577324
-0.00535506
-0.00475215
-0.00400888
-0.00315755
-0.00222707
-0.00123908
-0.000209249
0.000851555
0.00193592
0.00303829
0.00415347
0.00527433
0.00638886
0.00747613
0.00850035
0.00940845
0.0100942
0.0104883
-0.00737914
-0.00711475
-0.00658591
-0.00583067
-0.00492712
-0.00391555
-0.00283158
-0.00169889
-0.000532459
0.000659476
0.00187349
0.00310914
0.00436751
0.00564864
0.00694815
0.00825201
0.00952737
0.0107297
0.0116656
0.0123118
-0.00923829
-0.0087617
-0.00806203
-0.00708319
-0.00597034
-0.00475995
-0.00349533
-0.00220032
-0.000887088
0.000440635
0.00178536
0.00315357
0.0045555
0.00600187
0.00750097
0.00905297
0.0106365
0.0122589
0.0135608
0.0147614
-0.0110953
-0.0106311
-0.00977409
-0.00851451
-0.00713247
-0.00567752
-0.00420269
-0.00272885
-0.00126279
0.000199379
0.00166839
0.00315984
0.0046942
0.00629579
0.00799014
0.00979732
0.0117124
0.0138934
0.0155421
0.0178371
-0.0154475
-0.0132585
-0.0120498
-0.0101886
-0.0084032
-0.00663592
-0.00491824
-0.00325488
-0.00163784
-5.10475e-05
0.00152716
0.0031225
0.00476594
0.00650621
0.00840701
0.0105621
0.012989
0.0162469
0.0188464
0.0234483
-0.0176303
-0.0163029
-0.0144346
-0.0120901
-0.00980959
-0.00764428
-0.00564145
-0.00377432
-0.0020101
-0.000314366
0.00134715
0.00301022
0.00470914
0.00648714
0.00838623
0.0105233
0.0125777
0.0166606
0.0180529
0.0268252
-0.0320895
-0.0181796
-0.0165927
-0.0132249
-0.0104673
-0.00812297
-0.00599139
-0.0040285
-0.0021958
-0.000450296
0.00124839
0.00294038
0.00467389
0.00652202
0.00857479
0.0112019
0.014239
0.0205886
0.0264915
0.0483623
)
;

boundaryField
{
    movingWall
    {
        type            zeroGradient;
    }
    fixedWalls
    {
        type            zeroGradient;
    }
    frontAndBack
    {
        type            empty;
    }
}


// ************************************************************************* //
