/*--------------------------------*- C++ -*----------------------------------*\
  =========                 |
  \\      /  F ield         | OpenFOAM: The Open Source CFD Toolbox
   \\    /   O peration     | Website:  https://openfoam.org
    \\  /    A nd           | Version:  9
     \\/     M anipulation  |
\*---------------------------------------------------------------------------*/
FoamFile
{
    format      ascii;
    class       surfaceScalarField;
    location    "1";
    object      phi;
}
// * * * * * * * * * * * * * * * * * * * * * * * * * * * * * * * * * * * * * //

dimensions      [0 3 -1 0 0 0 0];

internalField   nonuniform List<scalar> 
760
(
-4.14457e-06
4.14457e-06
-8.61458e-06
4.47002e-06
-1.28755e-05
4.26096e-06
-1.68064e-05
3.93088e-06
-2.03104e-05
3.50397e-06
-2.33038e-05
2.99346e-06
-2.57173e-05
2.41344e-06
-2.74958e-05
1.77848e-06
-2.85989e-05
1.10312e-06
-2.90007e-05
4.01799e-07
-2.86895e-05
-3.11163e-07
-2.76684e-05
-1.02108e-06
-2.59555e-05
-1.71294e-06
-2.35846e-05
-2.37093e-06
-2.06061e-05
-2.97845e-06
-1.70877e-05
-3.51841e-06
-1.31139e-05
-3.97378e-06
-8.78563e-06
-4.32831e-06
-4.23123e-06
-4.5544e-06
-4.23123e-06
-4.67971e-06
8.82427e-06
-9.70553e-06
9.49584e-06
-1.44944e-05
9.04988e-06
-1.89098e-05
8.34618e-06
-2.28426e-05
7.43686e-06
-2.62e-05
6.35077e-06
-2.89048e-05
5.11828e-06
-3.08968e-05
3.77047e-06
-3.21318e-05
2.33814e-06
-3.25816e-05
8.51593e-07
-3.22333e-05
-6.59448e-07
-3.10903e-05
-2.16412e-06
-2.91719e-05
-3.63128e-06
-2.65151e-05
-5.02775e-06
-2.31751e-05
-6.31851e-06
-1.92263e-05
-7.46714e-06
-1.47631e-05
-8.43705e-06
-9.89844e-06
-9.19292e-06
-4.77753e-06
-9.67531e-06
-9.00876e-06
-4.92221e-06
1.37465e-05
-1.02072e-05
1.47808e-05
-1.52379e-05
1.40806e-05
-1.98704e-05
1.29787e-05
-2.39913e-05
1.15578e-05
-2.75049e-05
9.86429e-06
-3.0333e-05
7.94645e-06
-3.24154e-05
5.85284e-06
-3.37081e-05
3.63087e-06
-3.41831e-05
1.32655e-06
-3.3827e-05
-1.0155e-06
-3.26423e-05
-3.34883e-06
-3.06469e-05
-5.62673e-06
-2.78759e-05
-7.79871e-06
-2.43837e-05
-9.81077e-06
-2.0245e-05
-1.16058e-05
-1.55564e-05
-1.31256e-05
-1.04364e-05
-1.4313e-05
-5.03857e-06
-1.50731e-05
-1.40473e-05
-5.28077e-06
1.90273e-05
-1.09471e-05
2.04471e-05
-1.63326e-05
1.94661e-05
-2.12821e-05
1.79282e-05
-2.56756e-05
1.59513e-05
-2.9414e-05
1.36027e-05
-3.24187e-05
1.09512e-05
-3.46302e-05
8.06435e-06
-3.60059e-05
5.00651e-06
-3.65182e-05
1.83888e-06
-3.61535e-05
-1.38023e-06
-3.49123e-05
-4.58999e-06
-3.28097e-05
-7.72929e-06
-2.98777e-05
-1.07308e-05
-2.61676e-05
-1.35209e-05
-2.17536e-05
-1.60198e-05
-1.6735e-05
-1.81442e-05
-1.12374e-05
-1.98105e-05
-5.42841e-06
-2.08821e-05
-1.94757e-05
-5.78259e-06
2.48098e-05
-1.19806e-05
2.66451e-05
-1.78579e-05
2.53435e-05
-2.32434e-05
2.33137e-05
-2.80083e-05
2.07162e-05
-3.20504e-05
1.76448e-05
-3.52918e-05
1.41926e-05
-3.76755e-05
1.04481e-05
-3.91619e-05
6.49284e-06
-3.97251e-05
2.40217e-06
-3.93512e-05
-1.75415e-06
-3.80381e-05
-5.90309e-06
-3.5796e-05
-9.97142e-06
-3.26507e-05
-1.38761e-05
-2.86482e-05
-1.75234e-05
-2.38596e-05
-2.08084e-05
-1.83863e-05
-2.36176e-05
-1.23633e-05
-2.58335e-05
-5.97767e-06
-2.72677e-05
-2.54534e-05
-6.44828e-06
3.12581e-05
-1.33481e-05
3.35449e-05
-1.98692e-05
3.18646e-05
-2.58187e-05
2.92632e-05
-3.1058e-05
2.59554e-05
-3.54828e-05
2.20697e-05
-3.9019e-05
1.77288e-05
-4.16155e-05
1.30446e-05
-4.32389e-05
8.11616e-06
-4.38671e-05
3.0304e-06
-4.34861e-05
-2.13513e-06
-4.20901e-05
-7.29913e-06
-3.96814e-05
-1.23802e-05
-3.62755e-05
-1.72819e-05
-3.1908e-05
-2.18909e-05
-2.66425e-05
-2.60739e-05
-2.05799e-05
-2.96802e-05
-1.38656e-05
-3.25478e-05
-6.71295e-06
-3.44204e-05
-3.21664e-05
-7.30755e-06
3.85657e-05
-1.51074e-05
4.13448e-05
-2.24436e-05
3.92008e-05
-2.90957e-05
3.59153e-05
-3.49148e-05
3.17745e-05
-3.97987e-05
2.69535e-05
-4.36822e-05
2.16123e-05
-4.65269e-05
1.58893e-05
-4.831e-05
9.89931e-06
-4.90171e-05
3.73747e-06
-4.86351e-05
-2.51708e-06
-4.71526e-05
-8.78165e-06
-4.456e-05
-1.49728e-05
-4.08559e-05
-2.09859e-05
-3.60573e-05
-2.66895e-05
-3.02121e-05
-3.19191e-05
-2.34145e-05
-3.64778e-05
-1.58193e-05
-4.0143e-05
-7.67347e-06
-4.25662e-05
-3.98398e-05
-8.40402e-06
4.69697e-05
-1.7341e-05
5.02817e-05
-2.56891e-05
4.75489e-05
-3.31936e-05
4.34198e-05
-3.96977e-05
3.82786e-05
-4.51089e-05
3.23647e-05
-4.93814e-05
2.58848e-05
-5.24988e-05
1.90066e-05
-5.44578e-05
1.18584e-05
-5.52565e-05
4.53617e-06
-5.48853e-05
-2.8883e-06
-5.33244e-05
-1.03425e-05
-5.05468e-05
-1.77505e-05
-4.65243e-05
-2.50084e-05
-4.12424e-05
-3.19714e-05
-3.47194e-05
-3.84421e-05
-2.70304e-05
-4.41667e-05
-1.8334e-05
-4.88394e-05
-8.91799e-06
-5.19823e-05
-4.87578e-05
-9.80286e-06
5.67726e-05
-2.01694e-05
6.06482e-05
-2.97586e-05
5.71382e-05
-3.82751e-05
5.19363e-05
-4.55621e-05
4.55656e-05
-5.15514e-05
3.8354e-05
-5.62337e-05
3.05671e-05
-5.963e-05
2.2403e-05
-6.17689e-05
1.39972e-05
-6.2669e-05
5.43622e-06
-6.23279e-05
-3.2294e-06
-6.07145e-05
-1.19559e-05
-5.77764e-05
-2.06885e-05
-5.34452e-05
-2.93396e-05
-4.76553e-05
-3.77613e-05
-4.0372e-05
-4.57255e-05
-3.16287e-05
-5.291e-05
-2.15724e-05
-5.88957e-05
-1.05367e-05
-6.3018e-05
-5.92945e-05
-1.16047e-05
6.83772e-05
-2.37711e-05
7.28146e-05
-3.48701e-05
6.82372e-05
-4.45624e-05
6.16285e-05
-5.27097e-05
5.37129e-05
-5.92949e-05
4.49393e-05
-6.43718e-05
3.5644e-05
-6.80225e-05
2.60537e-05
-7.03249e-05
1.62996e-05
-7.13295e-05
6.44091e-06
-7.10475e-05
-3.51141e-06
-6.9434e-05
-1.35695e-05
-6.64002e-05
-2.37223e-05
-6.18189e-05
-3.39209e-05
-5.55455e-05
-4.40346e-05
-4.74557e-05
-5.38154e-05
-3.75004e-05
-6.28653e-05
-2.57808e-05
-7.06153e-05
-1.26733e-05
-7.61255e-05
-7.19678e-05
-1.39716e-05
8.23488e-05
-2.84173e-05
8.72603e-05
-4.13404e-05
8.11603e-05
-5.23619e-05
7.265e-05
-6.14027e-05
6.27537e-05
-6.85423e-05
5.20789e-05
-7.39396e-05
4.10413e-05
-7.77709e-05
2.9885e-05
-8.0188e-05
1.87167e-05
-8.12892e-05
7.54208e-06
-8.11062e-05
-3.6944e-06
-7.95815e-05
-1.50942e-05
-7.65777e-05
-2.6726e-05
-7.18826e-05
-3.8616e-05
-6.5235e-05
-5.06822e-05
-5.6366e-05
-6.26844e-05
-4.50746e-05
-7.41567e-05
-3.13429e-05
-8.43471e-05
-1.55703e-05
-9.1898e-05
-8.75381e-05
-1.71812e-05
9.95301e-05
-3.45322e-05
0.000104611
-4.96379e-05
9.6266e-05
-6.20993e-05
8.51113e-05
-7.19808e-05
7.26353e-05
-7.95344e-05
5.96325e-05
-8.50834e-05
4.65903e-05
-8.89452e-05
3.37468e-05
-9.13795e-05
2.11511e-05
-9.25516e-05
8.71417e-06
-9.25204e-05
-3.72564e-06
-9.12189e-05
-1.63957e-05
-8.84544e-05
-2.94904e-05
-8.39049e-05
-4.31656e-05
-7.71338e-05
-5.74533e-05
-6.76507e-05
-7.21675e-05
-5.49926e-05
-8.68148e-05
-3.8874e-05
-0.000100466
-1.96742e-05
-0.000111098
-0.000107212
-2.17427e-05
0.000121273
-4.27969e-05
0.000125665
-6.04646e-05
0.000113934
-7.4368e-05
9.90146e-05
-8.48818e-05
8.31492e-05
-9.25401e-05
6.72908e-05
-9.7926e-05
5.19761e-05
-0.000101564
3.73851e-05
-0.000103853
2.34396e-05
-0.000105043
9.90395e-06
-0.000105229
-3.53971e-06
-0.000104341
-1.7283e-05
-0.000102131
-3.17005e-05
-9.81511e-05
-4.71457e-05
-9.17439e-05
-6.38605e-05
-8.20647e-05
-8.18467e-05
-6.82211e-05
-0.000100658
-4.93807e-05
-0.000119306
-2.58169e-05
-0.000134662
-0.000133029
-2.86187e-05
0.000149891
-5.43365e-05
0.000151383
-7.4882e-05
0.000134479
-8.9993e-05
0.000114126
-0.000100638
9.37938e-05
-0.000107826
7.44788e-05
-0.00011254
5.66905e-05
-0.000115563
4.04084e-05
-0.000117456
2.53328e-05
-0.000118569
1.10164e-05
-0.000119045
-3.06385e-06
-0.000118824
-1.75036e-05
-0.000117614
-3.29104e-05
-0.000114846
-4.99138e-05
-0.000109613
-6.90935e-05
-0.00010062
-9.08404e-05
-8.62244e-05
-0.000115053
-6.4532e-05
-0.000140999
-3.55208e-05
-0.000163673
-0.00016855
-3.93128e-05
0.000189204
-7.09055e-05
0.000182976
-9.44702e-05
0.000158044
-0.000110071
0.000129726
-0.000119847
0.00010357
-0.000125623
8.02553e-05
-0.000128893
5.996e-05
-0.000130735
4.2251e-05
-0.000131879
2.64761e-05
-0.000132766
1.19037e-05
-0.000133599
-2.23104e-06
-0.000134349
-1.67535e-05
-0.000134723
-3.25366e-05
-0.000134077
-5.0559e-05
-0.000131282
-7.18887e-05
-0.000124539
-9.75837e-05
-0.000111221
-0.000128371
-8.71698e-05
-0.00016505
-5.18635e-05
-0.000198979
-0.000220414
-5.92246e-05
0.000248429
-9.60814e-05
0.000219833
-0.000121775
0.000183738
-0.000135976
0.000143927
-0.000143127
0.000110721
-0.000146022
8.31502e-05
-0.000146746
6.06837e-05
-0.000146657
4.21627e-05
-0.000146604
2.64233e-05
-0.000147069
1.23683e-05
-0.000148294
-1.00565e-06
-0.000150317
-1.47312e-05
-0.000152945
-2.99082e-05
-0.000155601
-4.79027e-05
-0.000157064
-7.04262e-05
-0.000155102
-9.9546e-05
-0.000146198
-0.000137274
-0.000121731
-0.000189517
-8.22451e-05
-0.000238465
-0.000302659
-8.23042e-05
0.000330733
-0.000129246
0.000266775
-0.000158233
0.000212725
-0.000168973
0.000154666
-0.000170784
0.000112532
-0.000168696
8.10631e-05
-0.000165467
5.74545e-05
-0.000162594
3.92895e-05
-0.000160846
2.46756e-05
-0.000160627
1.21492e-05
-0.000162231
5.98088e-07
-0.000165733
-1.12292e-05
-0.000171199
-2.44417e-05
-0.000178368
-4.07338e-05
-0.000186354
-6.24407e-05
-0.0001927
-9.31996e-05
-0.000193728
-0.000136247
-0.00017298
-0.000210264
-0.000135409
-0.000276037
-0.000438067
-0.000179067
0.0005098
-0.000207034
0.000294742
-0.00021606
0.00022175
-0.000211751
0.000150358
-0.000201572
0.000102352
-0.000190939
7.04297e-05
-0.000181871
4.83869e-05
-0.000175158
3.25763e-05
-0.000171111
2.06284e-05
-0.000169879
1.0917e-05
-0.000171475
2.19418e-06
-0.000176457
-6.24647e-06
-0.000185169
-1.57304e-05
-0.00019825
-2.76528e-05
-0.000216452
-4.4238e-05
-0.000238838
-7.08146e-05
-0.0002639
-0.000111184
-0.00026753
-0.000206635
-0.000239877
-0.00030369
-0.000677944
-0.000262226
0.000772026
-0.000256308
0.000288824
-0.000235259
0.000200702
-0.000200852
0.000115951
-0.0001676
6.91003e-05
-0.000141511
4.43407e-05
-0.000122331
2.92072e-05
-0.000109022
1.92672e-05
-0.000100693
1.22996e-05
-9.67471e-05
6.97077e-06
-9.69705e-05
2.41755e-06
-0.000101247
-1.96986e-06
-0.000110006
-6.97101e-06
-0.000123537
-1.41221e-05
-0.00014238
-2.53954e-05
-0.000165143
-4.8051e-05
-0.000188733
-8.75945e-05
-0.000204292
-0.000191076
-0.000184571
-0.000323411
-0.000862515
0.000772026
0.00106085
0.00126155
0.0013775
0.0014466
0.00149094
0.00152015
0.00153942
0.00155172
0.00155869
0.00156111
0.00155914
0.00155216
0.00153804
0.00151265
0.0014646
0.001377
0.00118593
0.000862515
)
;

boundaryField
{
    movingWall
    {
        type            calculated;
        value           uniform 0;
    }
    fixedWalls
    {
        type            calculated;
        value           uniform 0;
    }
    frontAndBack
    {
        type            empty;
        value           nonuniform List<scalar> 0();
    }
}


// ************************************************************************* //
