/*--------------------------------*- C++ -*----------------------------------*\
  =========                 |
  \\      /  F ield         | OpenFOAM: The Open Source CFD Toolbox
   \\    /   O peration     | Website:  https://openfoam.org
    \\  /    A nd           | Version:  9
     \\/     M anipulation  |
\*---------------------------------------------------------------------------*/
FoamFile
{
    format      ascii;
    class       volVectorField;
    location    "1";
    object      U;
}
// * * * * * * * * * * * * * * * * * * * * * * * * * * * * * * * * * * * * * //

dimensions      [0 1 -1 0 0 0 0];

internalField   nonuniform List<vector> 
400
(
(-0.000204854 0.000201945 0)
(-0.000636781 0.000217946 0)
(-0.00107745 0.00020778 0)
(-0.00148807 0.000191724 0)
(-0.0018607 0.000170948 0)
(-0.00218633 0.000146084 0)
(-0.00245726 0.000117814 0)
(-0.0026673 8.68448e-05 0)
(-0.00281168 5.38879e-05 0)
(-0.00288708 1.96512e-05 0)
(-0.00289164 -1.51597e-05 0)
(-0.00282491 -4.98202e-05 0)
(-0.00268795 -8.35902e-05 0)
(-0.00248335 -0.000115693 0)
(-0.00221531 -0.000145316 0)
(-0.00188972 -0.000171627 0)
(-0.00151421 -0.000193802 0)
(-0.00109804 -0.000211056 0)
(-0.000649773 -0.00022206 0)
(-0.000209244 -0.000206175 0)
(-0.000231413 0.000642094 0)
(-0.000718143 0.000691539 0)
(-0.00121356 0.000659158 0)
(-0.001675 0.000608039 0)
(-0.00209347 0.000541939 0)
(-0.00245886 0.000462922 0)
(-0.00276266 0.000373181 0)
(-0.00299802 0.000274972 0)
(-0.00315971 0.000170544 0)
(-0.00324413 6.21213e-05 0)
(-0.00324923 -4.80876e-05 0)
(-0.00317454 -0.000157835 0)
(-0.00302118 -0.000264807 0)
(-0.00279194 -0.000366567 0)
(-0.00249143 -0.000460554 0)
(-0.00212611 -0.00054412 0)
(-0.00170444 -0.000614622 0)
(-0.00123678 -0.000669524 0)
(-0.000732804 -0.000704546 0)
(-0.000236367 -0.000655471 0)
(-0.000243417 0.00112564 0)
(-0.000755353 0.00121057 0)
(-0.0012761 0.00115351 0)
(-0.00176055 0.00106359 0)
(-0.00219932 0.000947484 0)
(-0.00258194 0.000808932 0)
(-0.00289971 0.000651839 0)
(-0.00314574 0.000480174 0)
(-0.00331482 0.000297844 0)
(-0.00340338 0.000108668 0)
(-0.00340936 -8.35888e-05 0)
(-0.00333221 -0.000275114 0)
(-0.00317293 -0.000461958 0)
(-0.00293416 -0.000639939 0)
(-0.00262034 -0.000804608 0)
(-0.00223791 -0.000951304 0)
(-0.00179543 -0.00107532 0)
(-0.00130367 -0.00117206 0)
(-0.000772788 -0.0012339 0)
(-0.000249308 -0.00114965 0)
(-0.000261194 0.00163425 0)
(-0.000810307 0.00175644 0)
(-0.00136826 0.00167278 0)
(-0.00188638 0.00154136 0)
(-0.00235467 0.00137212 0)
(-0.00276216 0.00117068 0)
(-0.00309998 0.000942858 0)
(-0.00336126 0.000694432 0)
(-0.00354092 0.000430996 0)
(-0.00363548 0.000157915 0)
(-0.0036429 -0.000119576 0)
(-0.00356252 -0.000396203 0)
(-0.00339511 -0.000666471 0)
(-0.00314298 -0.000924486 0)
(-0.00281026 -0.00116387 0)
(-0.00240318 -0.0013778 0)
(-0.0019304 -0.00155925 0)
(-0.00140316 -0.00170125 0)
(-0.000832422 -0.00179236 0)
(-0.000268664 -0.00167129 0)
(-0.000286097 0.0021858 0)
(-0.000887163 0.00234788 0)
(-0.00149685 0.00223435 0)
(-0.00206147 0.00205681 0)
(-0.00257018 0.00182901 0)
(-0.0030114 0.00155894 0)
(-0.00337618 0.00125462 0)
(-0.00365784 0.000923834 0)
(-0.00385159 0.000573881 0)
(-0.00395421 0.000211601 0)
(-0.00396373 -0.000156461 0)
(-0.00387934 -0.00052375 0)
(-0.00370144 -0.000883383 0)
(-0.00343176 -0.00122783 0)
(-0.00307384 -0.00154872 0)
(-0.00263345 -0.00183685 0)
(-0.00211916 -0.00208244 0)
(-0.00154279 -0.00227554 0)
(-0.000916364 -0.00240011 0)
(-0.000295965 -0.00223976 0)
(-0.00031917 0.00279543 0)
(-0.000989035 0.00300072 0)
(-0.00166675 0.00285253 0)
(-0.0022919 0.00262218 0)
(-0.00285254 0.00232821 0)
(-0.00333656 0.0019816 0)
(-0.0037351 0.00159305 0)
(-0.00404201 0.00117257 0)
(-0.00425315 0.000729208 0)
(-0.00436583 0.000271099 0)
(-0.00437826 -0.000194176 0)
(-0.00428945 -0.000659104 0)
(-0.0040992 -0.0011157 0)
(-0.00380833 -0.00155496 0)
(-0.00341928 -0.00196652 0)
(-0.0029369 -0.00233848 0)
(-0.0023693 -0.00265772 0)
(-0.00172874 -0.00291044 0)
(-0.00102861 -0.00307467 0)
(-0.00033256 -0.00287208 0)
(-0.000361929 0.00348087 0)
(-0.00112039 0.00373326 0)
(-0.00188484 0.0035434 0)
(-0.00258602 0.00325079 0)
(-0.00321076 0.00288015 0)
(-0.00374656 0.00244645 0)
(-0.00418521 0.00196373 0)
(-0.00452168 0.00144449 0)
(-0.00475306 0.000899465 0)
(-0.00487759 0.000337813 0)
(-0.00489393 -0.000232317 0)
(-0.00480087 -0.000803015 0)
(-0.0045973 -0.00136567 0)
(-0.00428259 -0.00191019 0)
(-0.00385736 -0.00242425 0)
(-0.00332466 -0.00289298 0)
(-0.00269139 -0.0032991 0)
(-0.00196989 -0.00362361 0)
(-0.001175 -0.00383672 0)
(-0.00038045 -0.00358859 0)
(-0.000416614 0.00426343 0)
(-0.00128773 0.00456705 0)
(-0.00216092 0.0043253 0)
(-0.00295542 0.0039571 0)
(-0.00365689 0.00349546 0)
(-0.00425298 0.00296084 0)
(-0.00473706 0.00237147 0)
(-0.00510627 0.00174266 0)
(-0.00535983 0.00108665 0)
(-0.00549761 0.000413099 0)
(-0.00551909 -0.000270018 0)
(-0.0054228 -0.000955287 0)
(-0.00520637 -0.0016343 0)
(-0.00486691 -0.0022965 0)
(-0.00440208 -0.00292794 0)
(-0.00381176 -0.00351049 0)
(-0.00310027 -0.0040217 0)
(-0.00227906 -0.00443547 0)
(-0.00136423 -0.00471114 0)
(-0.000442658 -0.00441444 0)
(-0.000486607 0.00516969 0)
(-0.00150069 0.00552834 0)
(-0.00250906 0.00521947 0)
(-0.00341619 0.00475663 0)
(-0.00420702 0.00418444 0)
(-0.00487056 0.00353089 0)
(-0.0054034 0.00281952 0)
(-0.00580651 0.00206871 0)
(-0.00608262 0.00129181 0)
(-0.00623426 0.000498111 0)
(-0.00626232 -0.000305761 0)
(-0.00616514 -0.00111423 0)
(-0.0059385 -0.00192045 0)
(-0.00557623 -0.00271454 0)
(-0.00507136 -0.00348161 0)
(-0.00441843 -0.00420021 0)
(-0.00361679 -0.00484158 0)
(-0.002675 -0.00536985 0)
(-0.00160942 -0.0057289 0)
(-0.000523861 -0.00538195 0)
(-0.000577205 0.00623424 0)
(-0.00177388 0.00664989 0)
(-0.0029498 0.00625075 0)
(-0.00399085 0.00566575 0)
(-0.00488264 0.0049561 0)
(-0.00561791 0.00416025 0)
(-0.00619925 0.00330831 0)
(-0.00663399 0.0024218 0)
(-0.00693043 0.00151437 0)
(-0.00709519 0.000593525 0)
(-0.00713143 -0.000337191 0)
(-0.0070375 -0.00127596 0)
(-0.00680668 -0.00221966 0)
(-0.00642806 -0.00316099 0)
(-0.00588775 -0.00408548 0)
(-0.00517175 -0.00496887 0)
(-0.00427043 -0.005775 0)
(-0.00318558 -0.00645479 0)
(-0.00193105 -0.00692956 0)
(-0.000631616 -0.00653466 0)
(-0.000697101 0.00750421 0)
(-0.00213025 0.00797373 0)
(-0.00351375 0.00744834 0)
(-0.00471131 0.00670067 0)
(-0.00571254 0.00581638 0)
(-0.00651836 0.00484798 0)
(-0.00714186 0.0038334 0)
(-0.00760046 0.00279691 0)
(-0.0079109 0.00175099 0)
(-0.00808582 0.000699088 0)
(-0.00813181 -0.000360958 0)
(-0.00804762 -0.00143367 0)
(-0.00782353 -0.00252253 0)
(-0.00744205 -0.00362601 0)
(-0.00687924 -0.00473299 0)
(-0.00610797 -0.00581784 0)
(-0.00510336 -0.0068365 0)
(-0.00385303 -0.00772298 0)
(-0.00236218 -0.00836476 0)
(-0.000778819 -0.00793433 0)
(-0.000861464 0.00904736 0)
(-0.00260718 0.00955461 0)
(-0.00424734 0.00884621 0)
(-0.00562336 0.00787531 0)
(-0.00673536 0.0067648 0)
(-0.00760091 0.0055849 0)
(-0.00825033 0.00438252 0)
(-0.0087164 0.00318303 0)
(-0.00902826 0.00199452 0)
(-0.00920714 0.000813089 0)
(-0.00926419 -0.000372536 0)
(-0.00919908 -0.00157667 0)
(-0.00899902 -0.00281316 0)
(-0.00863852 -0.00409054 0)
(-0.00807959 -0.0054061 0)
(-0.00727527 -0.00673782 0)
(-0.00617639 -0.00803468 0)
(-0.00474259 -0.00921102 0)
(-0.00295869 -0.0101016 0)
(-0.000989161 -0.00967508 0)
(-0.00109885 0.0109705 0)
(-0.00326839 0.0114638 0)
(-0.00522213 0.0104823 0)
(-0.00679336 0.00919653 0)
(-0.00800298 0.00778832 0)
(-0.00890065 0.00634891 0)
(-0.00954373 0.00493277 0)
(-0.00998847 0.0035611 0)
(-0.0102809 0.00223261 0)
(-0.0104529 0.000931683 0)
(-0.0105216 -0.000366077 0)
(-0.0104882 -0.00168913 0)
(-0.0103374 -0.00306644 0)
(-0.010035 -0.00452238 0)
(-0.00952652 -0.00606989 0)
(-0.00873657 -0.00769974 0)
(-0.00757756 -0.00936314 0)
(-0.00595547 -0.0109558 0)
(-0.0038208 -0.0122244 0)
(-0.00131178 -0.0119106 0)
(-0.00147059 0.0134262 0)
(-0.00423095 0.013786 0)
(-0.00654904 0.0123933 0)
(-0.00831809 0.0106538 0)
(-0.00958303 0.00885258 0)
(-0.0104565 0.00709883 0)
(-0.0110382 0.0054453 0)
(-0.0114166 0.00390008 0)
(-0.0116577 0.00244531 0)
(-0.0118058 0.00104778 0)
(-0.011885 -0.000334637 0)
(-0.0118994 -0.00174915 0)
(-0.0118323 -0.0032451 0)
(-0.011642 -0.0048702 0)
(-0.0112569 -0.00666366 0)
(-0.0105685 -0.00864325 0)
(-0.00943361 -0.0107816 0)
(-0.00764873 -0.0129846 0)
(-0.00513662 -0.0148385 0)
(-0.00185456 -0.014897 0)
(-0.00208828 0.0168575 0)
(-0.00569065 0.0166641 0)
(-0.00839492 0.0146114 0)
(-0.0103352 0.0122012 0)
(-0.011558 0.00988924 0)
(-0.012308 0.00776333 0)
(-0.0127425 0.00585795 0)
(-0.0129885 0.00415296 0)
(-0.0131332 0.00260269 0)
(-0.0132328 0.00114954 0)
(-0.0133185 -0.00027099 0)
(-0.0133987 -0.00172871 0)
(-0.0134585 -0.00329811 0)
(-0.0134535 -0.00505806 0)
(-0.0132996 -0.00708811 0)
(-0.0128545 -0.0094558 0)
(-0.01192 -0.0121855 0)
(-0.010071 -0.0152741 0)
(-0.00726057 -0.0180384 0)
(-0.00284469 -0.0191572 0)
(-0.00335319 0.0205477 0)
(-0.00821868 0.0198861 0)
(-0.0110576 0.0170298 0)
(-0.0130422 0.0137131 0)
(-0.0140209 0.0107661 0)
(-0.0144878 0.00822504 0)
(-0.0146485 0.0060785 0)
(-0.0146718 0.00425409 0)
(-0.014661 0.00266482 0)
(-0.0146794 0.00122015 0)
(-0.0147631 -0.000168959 0)
(-0.0149264 -0.00159625 0)
(-0.0151615 -0.00316082 0)
(-0.0154318 -0.0049794 0)
(-0.0156545 -0.00718662 0)
(-0.0156657 -0.00992747 0)
(-0.0152517 -0.0133302 0)
(-0.0135843 -0.0176547 0)
(-0.0109652 -0.0215623 0)
(-0.00487105 -0.0250083 0)
(-0.00479421 0.0307814 0)
(-0.0113863 0.0247442 0)
(-0.0146182 0.0201464 0)
(-0.0166049 0.0151219 0)
(-0.0170441 0.0112987 0)
(-0.0169921 0.00831053 0)
(-0.0167088 0.00597672 0)
(-0.0163967 0.00411803 0)
(-0.016161 0.00258024 0)
(-0.0160599 0.00123354 0)
(-0.0161276 -3.54562e-05 0)
(-0.0163826 -0.00132765 0)
(-0.0168329 -0.00277286 0)
(-0.0174695 -0.00452715 0)
(-0.0182359 -0.00680921 0)
(-0.0189832 -0.00993914 0)
(-0.0196194 -0.0142776 0)
(-0.0183982 -0.0208387 0)
(-0.0170417 -0.0271506 0)
(-0.00874098 -0.0370752 0)
(-0.0121474 0.0327246 0)
(-0.0220194 0.0278804 0)
(-0.0206174 0.0217361 0)
(-0.0217939 0.0155424 0)
(-0.0206767 0.0110638 0)
(-0.0196182 0.00780536 0)
(-0.0186208 0.00544763 0)
(-0.0178266 0.0036949 0)
(-0.0172869 0.00232957 0)
(-0.0170222 0.00119254 0)
(-0.017038 0.000158712 0)
(-0.0173636 -0.000884061 0)
(-0.018044 -0.00204793 0)
(-0.0191291 -0.0034844 0)
(-0.0206953 -0.00540253 0)
(-0.0227133 -0.00816629 0)
(-0.0256211 -0.0119533 0)
(-0.0259421 -0.0196973 0)
(-0.0292795 -0.0255297 0)
(-0.0160298 -0.0475557 0)
(-0.023568 0.0751126 0)
(-0.0276567 0.0304836 0)
(-0.0241875 0.0228969 0)
(-0.0220712 0.0138944 0)
(-0.0182324 0.00884384 0)
(-0.0153308 0.00590011 0)
(-0.0130937 0.00397367 0)
(-0.0114911 0.00264716 0)
(-0.0104242 0.00167946 0)
(-0.00981909 0.000915428 0)
(-0.00963607 0.000248331 0)
(-0.00986087 -0.000420351 0)
(-0.0105097 -0.00118289 0)
(-0.0116231 -0.00220355 0)
(-0.0132742 -0.00377351 0)
(-0.0150388 -0.00666772 0)
(-0.0191645 -0.0116382 0)
(-0.0165965 -0.0238557 0)
(-0.0273462 -0.0394717 0)
(-0.00579971 -0.0959243 0)
(0.0829227 0.0694412 0)
(0.0812397 0.0260138 0)
(0.122725 0.0158643 0)
(0.132954 0.0087799 0)
(0.141461 0.00484033 0)
(0.147137 0.00289613 0)
(0.150709 0.00182697 0)
(0.153063 0.00118262 0)
(0.154608 0.000762803 0)
(0.155553 0.000462868 0)
(0.15601 0.000223814 0)
(0.156021 8.78504e-06 0)
(0.155555 -0.000227262 0)
(0.154529 -0.000556652 0)
(0.152345 -0.00110013 0)
(0.149835 -0.00239607 0)
(0.139657 -0.00466359 0)
(0.140043 -0.0118074 0)
(0.0878885 -0.0201051 0)
(0.0968936 -0.0640054 0)
)
;

boundaryField
{
    movingWall
    {
        type            fixedValue;
        value           uniform (1 0 0);
    }
    fixedWalls
    {
        type            noSlip;
    }
    frontAndBack
    {
        type            empty;
    }
}


// ************************************************************************* //
