/*--------------------------------*- C++ -*----------------------------------*\
  =========                 |
  \\      /  F ield         | OpenFOAM: The Open Source CFD Toolbox
   \\    /   O peration     | Website:  https://openfoam.org
    \\  /    A nd           | Version:  9
     \\/     M anipulation  |
\*---------------------------------------------------------------------------*/
FoamFile
{
    format      ascii;
    class       volScalarField;
    location    "6";
    object      p;
}
// * * * * * * * * * * * * * * * * * * * * * * * * * * * * * * * * * * * * * //

dimensions      [0 2 -2 0 0 0 0];

internalField   nonuniform List<scalar> 
400
(
8.56724e-09
-3.21384e-06
3.07518e-05
8.76669e-05
0.000172531
0.000286223
0.000430189
0.00060579
0.000813916
0.00105456
0.00132629
0.00162566
0.00194656
0.00227968
0.0026119
0.00292635
0.00320345
0.00341976
0.00356636
0.0035999
3.27964e-06
-5.01858e-07
3.34511e-05
8.87625e-05
0.000171218
0.000281872
0.0004224
0.000594429
0.000799159
0.00103698
0.00130692
0.00160579
0.00192802
0.0022651
0.0026039
0.00292722
0.00321452
0.0034406
0.0035961
0.00363198
-3.47785e-05
-4.07338e-05
-8.31308e-06
4.45013e-05
0.000124035
0.000231508
0.000368981
0.000538605
0.000742226
0.000981008
0.00125487
0.00156204
0.00189798
0.00225425
0.00261781
0.0029704
0.00328911
0.00354395
0.00372201
0.00376457
-9.9233e-05
-0.000107228
-7.71464e-05
-2.81007e-05
4.69028e-05
0.000149364
0.000281935
0.000447565
0.000649136
0.000889098
0.00116891
0.00148826
0.00184412
0.00223011
0.00263347
0.00303475
0.00340691
0.00371182
0.00392973
0.00398793
-0.000193151
-0.000203715
-0.000176929
-0.000133057
-6.43235e-05
3.11172e-05
0.000156661
0.000316283
0.000514246
0.00075478
0.00104152
0.00137668
0.00175973
0.00218652
0.00264588
0.00311764
0.00357068
0.00395542
0.00423834
0.00432718
-0.00031525
-0.000329053
-0.000306669
-0.000269714
-0.000209547
-0.000123965
-8.74418e-06
0.000141263
0.000331968
0.000569856
0.000861517
0.00121278
0.00162725
0.00210366
0.00263593
0.0032044
0.00377373
0.00428112
0.00466757
0.00481673
-0.000463929
-0.000481749
-0.000465064
-0.000437177
-0.000388527
-0.000316626
-0.000216423
-8.15542e-05
9.56971e-05
0.000324414
0.000614822
0.000977558
0.00142282
0.00195379
0.00257443
0.0032686
0.00399932
0.00469197
0.00524426
0.00551669
-0.00063724
-0.000659934
-0.000650393
-0.000634078
-0.000600506
-0.000547076
-0.000468061
-0.000355999
-0.00020141
7.52137e-06
0.000285096
0.000647904
0.00111332
0.00169846
0.0024158
0.00326275
0.00420883
0.00517457
0.00599626
0.0065274
-0.000832677
-0.000861135
-0.000860211
-0.000858168
-0.000843677
-0.000814333
-0.000764059
-0.000684677
-0.00056532
-0.000391764
-0.000145761
0.000195479
0.000659037
0.00127526
0.00208411
0.00310035
0.00431913
0.00567627
0.0069191
0.00803671
-0.00104715
-0.00108223
-0.0010912
-0.00110607
-0.00111476
-0.00111555
-0.00110256
-0.00106758
-0.000999149
-0.000881508
-0.000693156
-0.000405023
2.21758e-05
0.000640493
0.00149215
0.00265164
0.00417007
0.0060411
0.00794537
0.0102994
-0.00127705
-0.00131958
-0.00133915
-0.00137311
-0.00140864
-0.0014454
-0.00147845
-0.00150052
-0.00150106
-0.00146475
-0.00136951
-0.00118412
-0.000864072
-0.000346332
0.000451897
0.00163341
0.0033915
0.00585011
0.00864187
0.0131967
-0.00151836
-0.0015687
-0.00159808
-0.00165209
-0.00171717
-0.00179497
-0.00188216
-0.00197347
-0.00206097
-0.00213245
-0.00216939
-0.00214396
-0.00201427
-0.00171546
-0.00114853
-0.000167955
0.00149742
0.00422936
0.00745865
0.0149861
-0.00176934
-0.00183479
-0.00187332
-0.00195168
-0.00204502
-0.00216275
-0.00230554
-0.00247317
-0.00266282
-0.00286841
-0.00307988
-0.00328223
-0.003453
-0.00355744
-0.00355087
-0.00339159
-0.00282105
-0.00105055
0.000359436
0.0100977
-0.0020144
-0.00206408
-0.002102
-0.00218183
-0.00230388
-0.00247262
-0.00268871
-0.00295094
-0.00325951
-0.00361629
-0.00402586
-0.00449594
-0.00504119
-0.0056895
-0.00653756
-0.00777983
-0.00956518
-0.010121
-0.0109844
-0.00102959
-0.00228789
-0.00241932
-0.00244859
-0.00259385
-0.00272672
-0.00292206
-0.00317155
-0.00349082
-0.00389128
-0.00438773
-0.0050006
-0.00576733
-0.00675669
-0.00808252
-0.0100413
-0.0130528
-0.0183216
-0.0224858
-0.0238419
-0.0139515
-0.00262561
-0.00255488
-0.00254761
-0.00256489
-0.00270477
-0.00294439
-0.00328534
-0.00372286
-0.00426484
-0.00492514
-0.00573691
-0.00675115
-0.00809765
-0.00989982
-0.012795
-0.016996
-0.0253109
-0.0321878
-0.0365318
-0.0229431
-0.00249995
-0.00304717
-0.00301439
-0.00332884
-0.00341201
-0.00364919
-0.00393256
-0.00434434
-0.00488179
-0.00558235
-0.00646909
-0.00760026
-0.00917172
-0.0111545
-0.0147488
-0.019182
-0.0288636
-0.0368865
-0.0426726
-0.0189202
-0.00437045
-0.00311915
-0.00295549
-0.00253806
-0.00262596
-0.0029097
-0.00336748
-0.00395481
-0.00467482
-0.00551905
-0.00654765
-0.00774342
-0.00934289
-0.011294
-0.0143174
-0.0185645
-0.0256063
-0.031057
-0.0310678
0.00437462
-0.00105689
-0.00428924
-0.00375066
-0.00439982
-0.00412336
-0.00434006
-0.00447428
-0.0049134
-0.00543088
-0.00614075
-0.00709355
-0.00805285
-0.00960909
-0.0112136
-0.0139843
-0.0178578
-0.0236318
-0.023745
-0.0134657
0.0441048
-0.015142
-0.00247344
-0.00175814
-0.00156389
-0.00172164
-0.00209943
-0.00269558
-0.00336209
-0.00423532
-0.005091
-0.0062328
-0.0074996
-0.00889709
-0.0107524
-0.0125774
-0.0136234
-0.01246
0.00437937
0.0458486
0.142203
)
;

boundaryField
{
    movingWall
    {
        type            zeroGradient;
    }
    fixedWalls
    {
        type            zeroGradient;
    }
    frontAndBack
    {
        type            empty;
    }
}


// ************************************************************************* //
