/*--------------------------------*- C++ -*----------------------------------*\
  =========                 |
  \\      /  F ield         | OpenFOAM: The Open Source CFD Toolbox
   \\    /   O peration     | Website:  https://openfoam.org
    \\  /    A nd           | Version:  9
     \\/     M anipulation  |
\*---------------------------------------------------------------------------*/
FoamFile
{
    format      ascii;
    class       surfaceScalarField;
    location    "6";
    object      phi;
}
// * * * * * * * * * * * * * * * * * * * * * * * * * * * * * * * * * * * * * //

dimensions      [0 3 -1 0 0 0 0];

internalField   nonuniform List<scalar> 
760
(
-5.63449e-06
5.63448e-06
-1.53755e-05
9.74097e-06
-2.57685e-05
1.0393e-05
-3.60313e-05
1.02629e-05
-4.59453e-05
9.91401e-06
-5.53566e-05
9.41132e-06
-6.40846e-05
8.72797e-06
-7.19069e-05
7.82235e-06
-7.85548e-05
6.64788e-06
-8.37105e-05
5.15563e-06
-8.70095e-05
3.29909e-06
-8.80541e-05
1.0446e-06
-8.64246e-05
-1.62952e-06
-8.1739e-05
-4.68562e-06
-7.37119e-05
-8.02713e-06
-6.22356e-05
-1.14763e-05
-4.74913e-05
-1.47443e-05
-3.01805e-05
-1.73108e-05
-1.21874e-05
-1.79931e-05
-1.21874e-05
-1.00973e-05
1.57318e-05
-2.57289e-05
2.53726e-05
-4.21368e-05
2.68009e-05
-5.81727e-05
2.62987e-05
-7.34565e-05
2.51979e-05
-8.77093e-05
2.36641e-05
-0.000100638
2.16565e-05
-0.000111914
1.90987e-05
-0.000121168
1.59017e-05
-0.000127979
1.19671e-05
-0.000131874
7.19328e-06
-0.000132412
1.58272e-06
-0.00012905
-4.99114e-06
-0.000121327
-1.24084e-05
-0.00010892
-2.04342e-05
-9.17331e-05
-2.86635e-05
-7.0041e-05
-3.64364e-05
-4.4812e-05
-4.25398e-05
-1.86168e-05
-4.41883e-05
-3.08042e-05
-1.12297e-05
2.69614e-05
-2.84738e-05
4.26167e-05
-4.65166e-05
4.48437e-05
-6.41173e-05
4.38993e-05
-8.08765e-05
4.19571e-05
-9.65039e-05
3.92916e-05
-0.000110697
3.58499e-05
-0.000123121
3.15227e-05
-0.000133397
2.61769e-05
-0.000141095
1.96652e-05
-0.000145746
1.18445e-05
-0.000146779
2.61623e-06
-0.000143599
-8.17119e-06
-0.000135648
-2.03598e-05
-0.000122456
-3.36266e-05
-0.000103774
-4.73445e-05
-7.97531e-05
-6.04578e-05
-5.13571e-05
-7.09357e-05
-2.15004e-05
-7.4045e-05
-5.23046e-05
-1.16549e-05
3.86164e-05
-2.96534e-05
6.06153e-05
-4.84994e-05
6.36897e-05
-6.69226e-05
6.23226e-05
-8.45377e-05
5.95721e-05
-0.000101074
5.58279e-05
-0.00011625
5.1026e-05
-0.000129749
4.50219e-05
-0.000141203
3.76306e-05
-0.000150176
2.86378e-05
-0.000156152
1.78209e-05
-0.000158537
5.00114e-06
-0.000156597
-1.0111e-05
-0.000149525
-2.74317e-05
-0.000136568
-4.65844e-05
-0.00011713
-6.6782e-05
-9.10906e-05
-8.64973e-05
-5.93141e-05
-0.000102712
-2.51371e-05
-0.000108222
-7.74418e-05
-1.20506e-05
5.06669e-05
-3.08219e-05
7.93866e-05
-5.05207e-05
8.33885e-05
-6.98457e-05
8.16476e-05
-8.84348e-05
7.81612e-05
-0.000106051
7.34437e-05
-0.000122448
6.74238e-05
-0.000137348
5.99214e-05
-0.000150409
5.06923e-05
-0.000161205
3.94337e-05
-0.000169188
2.58038e-05
-0.000173657
9.47011e-06
-0.000173762
-1.00063e-05
-0.000168374
-3.28198e-05
-0.000156312
-5.86466e-05
-0.000136423
-8.66704e-05
-0.000107977
-0.000114944
-7.15096e-05
-0.000139179
-3.09586e-05
-0.000148773
-0.0001084
-1.25348e-05
6.32017e-05
-3.22506e-05
9.91024e-05
-5.29929e-05
0.000104131
-7.34172e-05
0.000102072
-9.31907e-05
9.79346e-05
-0.000112122
9.23748e-05
-0.00013002
8.53217e-05
-0.000146662
7.65642e-05
-0.000161766
6.57959e-05
-0.000174942
5.26095e-05
-0.000185642
3.65035e-05
-0.000193095
1.6924e-05
-0.000196311
-6.79109e-06
-0.000193745
-3.53852e-05
-0.000183634
-6.8758e-05
-0.000163966
-0.000106338
-0.000132956
-0.000145954
-9.02499e-05
-0.000181885
-4.04717e-05
-0.000198551
-0.000148872
-1.31129e-05
7.63147e-05
-3.39553e-05
0.000119945
-5.59301e-05
0.000126106
-7.76363e-05
0.000123778
-9.87768e-05
0.000119075
-0.00011922
0.000112818
-0.00013885
0.000104952
-0.000157534
9.5249e-05
-0.000175086
8.33478e-05
-0.000191208
6.8731e-05
-0.00020541
5.07058e-05
-0.000216892
2.84059e-05
-0.000224671
9.87803e-07
-0.000226629
-3.3427e-05
-0.000220337
-7.50496e-05
-0.00020253
-0.000124145
-0.000169659
-0.000178826
-0.000119382
-0.000232162
-5.66989e-05
-0.000261234
-0.000205571
-1.37762e-05
9.00908e-05
-3.59189e-05
0.000142087
-5.9292e-05
0.000149479
-8.24236e-05
0.00014691
-0.000105058
0.000141709
-0.000127136
0.000134896
-0.000148646
0.000126461
-0.000169581
0.000116184
-0.000189907
0.000103675
-0.0002095
8.83236e-05
-0.000228047
6.92527e-05
-0.000244903
4.52624e-05
-0.000258768
1.48522e-05
-0.000267838
-2.43571e-05
-0.000268504
-7.43837e-05
-0.00025591
-0.000136739
-0.000223742
-0.000210994
-0.000166067
-0.000289837
-8.67508e-05
-0.000340551
-0.000292322
-1.45236e-05
0.000104614
-3.8138e-05
0.000165702
-6.30508e-05
0.000174391
-8.77039e-05
0.000171563
-0.000111885
0.00016589
-0.000135625
0.000158636
-0.000159035
0.000149871
-0.00018228
0.000139429
-0.000205543
0.000126938
-0.000228968
0.000111748
-0.000252556
9.28404e-05
-0.000275987
6.86939e-05
-0.000298277
3.71425e-05
-0.00031785
-4.78412e-06
-0.000330309
-6.19249e-05
-0.000329089
-0.000137959
-0.000304021
-0.000236061
-0.000243624
-0.000350234
-0.000144653
-0.000439522
-0.000436975
-1.53716e-05
0.000119986
-4.06453e-05
0.000190976
-6.72195e-05
0.000200966
-9.34398e-05
0.000197783
-0.000119135
0.000191585
-0.000144435
0.000183936
-0.0001696
0.000175036
-0.000195003
0.000164832
-0.000221115
0.00015305
-0.000248472
0.000139105
-0.000277594
0.000121962
-0.000308818
9.99175e-05
-0.000341936
7.0261e-05
-0.000375621
2.89004e-05
-0.000406747
-3.07984e-05
-0.000427574
-0.000117132
-0.000423846
-0.000239789
-0.000376186
-0.000397894
-0.000263226
-0.000552482
-0.000700201
-1.63652e-05
0.000136351
-4.35356e-05
0.000218146
-7.18829e-05
0.000229313
-9.96687e-05
0.000225569
-0.000126747
0.000218664
-0.000153358
0.000210546
-0.000179916
0.000201595
-0.00020702
0.000191936
-0.000235465
0.000181495
-0.000266254
0.000169895
-0.000300603
0.000156311
-0.000339895
0.00013921
-0.000385462
0.000115828
-0.000437877
8.13158e-05
-0.000496745
2.80694e-05
-0.000556406
-5.7472e-05
-0.000602189
-0.000194006
-0.000603507
-0.000396575
-0.000490244
-0.000665746
-0.00119044
-1.76145e-05
0.000153966
-4.70343e-05
0.000247566
-7.72527e-05
0.000259531
-0.000106537
0.000254853
-0.000134759
0.000246886
-0.000162281
0.000238068
-0.000189662
0.000228976
-0.000217712
0.000219987
-0.000247571
0.000211353
-0.000280792
0.000203116
-0.000319474
0.000194994
-0.00036639
0.000186126
-0.000425047
0.000174485
-0.000499596
0.000155864
-0.000594041
0.000122514
-0.000712014
6.0501e-05
-0.000845198
-6.08215e-05
-0.000930823
-0.000310951
-0.000785901
-0.000810668
-0.00197635
-1.89457e-05
0.000172911
-5.11666e-05
0.000279787
-8.34218e-05
0.000291787
-0.000114569
0.000286
-0.000143719
0.000276036
-0.000171537
0.000265886
-0.000198776
0.000256215
-0.000226472
0.000247683
-0.000255973
0.000240854
-0.000289139
0.000236282
-0.000328744
0.000234598
-0.000379074
0.000236456
-0.000446608
0.000242019
-0.000540826
0.000250082
-0.000675216
0.000256904
-0.000863058
0.000248343
-0.00108925
0.000165372
-0.00120052
-0.000199682
-0.000874795
-0.00113639
-0.00285114
-2.36118e-05
0.000196523
-5.89371e-05
0.000315112
-9.28002e-05
0.00032565
-0.000123414
0.000316614
-0.000152044
0.000304666
-0.000179393
0.000293235
-0.000206128
0.000282951
-0.000232964
0.000274518
-0.000261087
0.000268978
-0.000292472
0.000267667
-0.000330294
0.000272421
-0.000379696
0.000285857
-0.00044913
0.000311454
-0.000551542
0.000352493
-0.00070615
0.000411513
-0.000922261
0.000464454
-0.00116203
0.000405145
-0.00120311
-0.000158608
-0.00069504
-0.00164446
-0.00354618
-1.78175e-05
0.000214341
-6.00419e-05
0.000357336
-9.89254e-05
0.000364533
-0.00013662
0.000354309
-0.000167471
0.000335516
-0.000194432
0.000320196
-0.000218217
0.000306736
-0.000240392
0.000296694
-0.000262237
0.000290822
-0.00028544
0.00029087
-0.000312217
0.000299197
-0.000347284
0.000320925
-0.000399319
0.000363489
-0.000481431
0.000434605
-0.000617372
0.000547454
-0.000799741
0.000646822
-0.000989317
0.000594722
-0.000984919
-0.000163007
-0.000566241
-0.00206314
-0.00411242
-5.71874e-05
0.000271528
-9.40347e-05
0.000394184
-0.000125237
0.000395735
-0.000149403
0.000378475
-0.000172728
0.000358842
-0.00019575
0.000343217
-0.000218117
0.000329103
-0.000239214
0.000317791
-0.000258833
0.000310441
-0.000276934
0.000308971
-0.0002944
0.000316663
-0.000312624
0.000339149
-0.000337825
0.00038869
-0.00037271
0.00046949
-0.000435987
0.000610731
-0.000508882
0.000719717
-0.000568841
0.000654681
-0.000558982
-0.000172867
-0.000383709
-0.00223841
-0.00449613
6.87359e-06
0.000264654
-7.35691e-05
0.000474626
-0.000134408
0.000456574
-0.000179802
0.000423869
-0.000209839
0.000388878
-0.000231959
0.000365338
-0.000247138
0.000344281
-0.000258517
0.000329171
-0.000264268
0.000316192
-0.000265728
0.00031043
-0.000257616
0.000308551
-0.000237448
0.000318981
-0.000203424
0.000354667
-0.000145945
0.000412011
-7.47321e-05
0.000539518
4.14043e-06
0.000640844
6.24375e-05
0.000596384
-3.84915e-05
-7.19376e-05
8.79078e-06
-0.00228569
-0.00448734
-5.50179e-05
0.000319672
-5.24294e-05
0.000472038
-8.482e-05
0.000488965
-0.000144701
0.000483749
-0.00018643
0.000430607
-0.000220072
0.00039898
-0.000241929
0.000366139
-0.00025302
0.000340262
-0.000254853
0.000318025
-0.000244488
0.000300065
-0.000222983
0.000287046
-0.000180726
0.000276724
-0.000114997
0.000288938
-9.8053e-06
0.000306819
0.000151546
0.000378166
0.000348178
0.000444213
0.000622145
0.000322418
0.000698573
-0.000148367
0.000482805
-0.00206992
-0.00400453
-0.000627285
0.000946957
-0.000668465
0.000513218
-0.000638665
0.000459165
-0.000536508
0.000381592
-0.000428347
0.000322446
-0.000311456
0.000282089
-0.000195105
0.000249788
-8.3615e-05
0.000228772
2.77597e-05
0.00020665
0.000134328
0.000193497
0.00024165
0.000179724
0.000350347
0.000168027
0.000477031
0.000162253
0.00062231
0.000161541
0.000852168
0.000148308
0.00114961
0.000146766
0.00150096
-2.89243e-05
0.00170176
-0.000349168
0.00116505
-0.00153322
-0.00283948
0.000946957
0.00146018
0.00191934
0.00230093
0.00262338
0.00290547
0.00315526
0.00338403
0.00359068
0.00378417
0.0039639
0.00413193
0.00429418
0.00445572
0.00460403
0.00475079
0.00472187
0.0043727
0.00283948
)
;

boundaryField
{
    movingWall
    {
        type            calculated;
        value           uniform 0;
    }
    fixedWalls
    {
        type            calculated;
        value           uniform 0;
    }
    frontAndBack
    {
        type            empty;
        value           nonuniform List<scalar> 0();
    }
}


// ************************************************************************* //
