/*--------------------------------*- C++ -*----------------------------------*\
  =========                 |
  \\      /  F ield         | OpenFOAM: The Open Source CFD Toolbox
   \\    /   O peration     | Website:  https://openfoam.org
    \\  /    A nd           | Version:  9
     \\/     M anipulation  |
\*---------------------------------------------------------------------------*/
FoamFile
{
    format      ascii;
    class       volVectorField;
    location    "6";
    object      U;
}
// * * * * * * * * * * * * * * * * * * * * * * * * * * * * * * * * * * * * * //

dimensions      [0 1 -1 0 0 0 0];

internalField   nonuniform List<vector> 
400
(
(-0.000187794 0.000182904 0)
(-0.000971194 0.000358232 0)
(-0.00207466 0.000388958 0)
(-0.00309757 0.000388522 0)
(-0.0041111 0.000380966 0)
(-0.00508125 0.000368717 0)
(-0.00599175 0.000350053 0)
(-0.00682316 0.000322607 0)
(-0.00755104 0.000283793 0)
(-0.0081461 0.000230931 0)
(-0.00857418 0.000161711 0)
(-0.00879716 7.49135e-05 0)
(-0.00877359 -3.24535e-05 0)
(-0.00846246 -0.000159081 0)
(-0.00782957 -0.000300592 0)
(-0.00685393 -0.000449039 0)
(-0.00553165 -0.000591288 0)
(-0.00394077 -0.000704243 0)
(-0.00202574 -0.00073612 0)
(-0.00047655 -0.000482802 0)
(-0.000377782 0.000977742 0)
(-0.00168492 0.00163459 0)
(-0.00342055 0.00173636 0)
(-0.00503185 0.00171004 0)
(-0.00660581 0.001646 0)
(-0.00808936 0.00155502 0)
(-0.00945443 0.00143344 0)
(-0.0106709 0.00127523 0)
(-0.0117038 0.00107357 0)
(-0.0125138 0.000821274 0)
(-0.0130559 0.000511303 0)
(-0.0132849 0.000137372 0)
(-0.0131505 -0.00030113 0)
(-0.0126012 -0.000797887 0)
(-0.0115971 -0.00133746 0)
(-0.010115 -0.00189169 0)
(-0.00815548 -0.0024152 0)
(-0.00582244 -0.00282536 0)
(-0.00304997 -0.0029338 0)
(-0.000755273 -0.00201448 0)
(-0.000422856 0.00213829 0)
(-0.00187012 0.00339945 0)
(-0.00378035 0.00358163 0)
(-0.00555044 0.00350859 0)
(-0.00727742 0.00335494 0)
(-0.00890407 0.0031428 0)
(-0.0104015 0.00286759 0)
(-0.0117389 0.0025202 0)
(-0.0128805 0.00208977 0)
(-0.0137862 0.0015645 0)
(-0.0144114 0.000932828 0)
(-0.0147038 0.000184987 0)
(-0.0146044 -0.000680283 0)
(-0.0140546 -0.0016544 0)
(-0.0130021 -0.0027098 0)
(-0.0114085 -0.00379443 0)
(-0.0092575 -0.00482171 0)
(-0.0066529 -0.00563223 0)
(-0.0035132 -0.0058582 0)
(-0.000879385 -0.00411477 0)
(-0.00043592 0.00326868 0)
(-0.00194396 0.00514408 0)
(-0.00394002 0.00540796 0)
(-0.00578985 0.00529226 0)
(-0.00760127 0.00505736 0)
(-0.00931612 0.00473624 0)
(-0.0109081 0.00432294 0)
(-0.0123484 0.00380468 0)
(-0.0136027 0.00316552 0)
(-0.0146312 0.00238747 0)
(-0.015387 0.00145249 0)
(-0.0158149 0.000346178 0)
(-0.015848 -0.000939748 0)
(-0.0154083 -0.00240089 0)
(-0.0144168 -0.00400365 0)
(-0.012803 -0.005677 0)
(-0.010515 -0.00729296 0)
(-0.00764539 -0.00859981 0)
(-0.00409139 -0.00901203 0)
(-0.0010403 -0.00640654 0)
(-0.000446426 0.00445155 0)
(-0.00201448 0.00697807 0)
(-0.00410067 0.0073304 0)
(-0.00603642 0.00717505 0)
(-0.00794209 0.00686305 0)
(-0.00975933 0.00643921 0)
(-0.0114662 0.0058965 0)
(-0.0130374 0.00521846 0)
(-0.0144422 0.00438348 0)
(-0.0156426 0.00336564 0)
(-0.0165907 0.00213663 0)
(-0.0172248 0.000669644 0)
(-0.0174681 -0.00105424 0)
(-0.0172208 -0.00304239 0)
(-0.0163668 -0.0052649 0)
(-0.0147866 -0.0076401 0)
(-0.0123621 -0.00999967 0)
(-0.00914491 -0.0119803 0)
(-0.00500097 -0.0127024 0)
(-0.00130825 -0.00916433 0)
(-0.000459303 0.00567838 0)
(-0.00210068 0.00889806 0)
(-0.00429716 0.00934791 0)
(-0.00633778 0.00915809 0)
(-0.00835809 0.00877675 0)
(-0.0102998 0.00826191 0)
(-0.0121469 0.00760609 0)
(-0.01388 0.00678935 0)
(-0.015474 0.00578385 0)
(-0.0168957 0.00455387 0)
(-0.0180993 0.0030571 0)
(-0.0190202 0.00124834 0)
(-0.0195724 -0.000913595 0)
(-0.0196296 -0.00346515 0)
(-0.0190266 -0.00639418 0)
(-0.0175733 -0.00962529 0)
(-0.0150488 -0.0129553 0)
(-0.0114034 -0.0158966 0)
(-0.00644967 -0.0171501 0)
(-0.00176836 -0.0126482 0)
(-0.000474539 0.00695765 0)
(-0.00220367 0.0109207 0)
(-0.00453138 0.0114785 0)
(-0.00669482 0.0112597 0)
(-0.00884797 0.0108179 0)
(-0.0109327 0.0102261 0)
(-0.012941 0.00947769 0)
(-0.0148619 0.00855001 0)
(-0.0166798 0.00740906 0)
(-0.0183712 0.00600792 0)
(-0.0198977 0.00428613 0)
(-0.0211966 0.00217131 0)
(-0.0221822 -0.000415814 0)
(-0.0227024 -0.00353995 0)
(-0.0225329 -0.00725671 0)
(-0.021391 -0.0115287 0)
(-0.0189048 -0.0161457 0)
(-0.0148071 -0.0204953 0)
(-0.00882191 -0.0226812 0)
(-0.00260021 -0.0173318 0)
(-0.000491532 0.00829881 0)
(-0.00232228 0.0130645 0)
(-0.00480089 0.0137407 0)
(-0.00710179 0.0134971 0)
(-0.00940123 0.0130027 0)
(-0.011641 0.0123487 0)
(-0.0138235 0.011531 0)
(-0.0159491 0.0105266 0)
(-0.0180165 0.00929675 0)
(-0.020019 0.00778396 0)
(-0.021936 0.00590823 0)
(-0.0237221 0.00356419 0)
(-0.0252833 0.000621579 0)
(-0.0264709 -0.00304997 0)
(-0.0270236 -0.00761059 0)
(-0.0265266 -0.0131209 0)
(-0.0244093 -0.0194371 0)
(-0.0200048 -0.0258556 0)
(-0.0129078 -0.0296573 0)
(-0.00421992 -0.0241248 0)
(-0.000510067 0.00971019 0)
(-0.00245655 0.0153467 0)
(-0.00510479 0.0161499 0)
(-0.00755396 0.0158824 0)
(-0.0100071 0.0153404 0)
(-0.0124054 0.0146373 0)
(-0.0147636 0.0137749 0)
(-0.0170966 0.0127331 0)
(-0.0194229 0.011472 0)
(-0.0217601 0.00992678 0)
(-0.0241177 0.00799915 0)
(-0.0264834 0.00554833 0)
(-0.0287963 0.00238333 0)
(-0.0309357 -0.00174276 0)
(-0.032618 -0.00710328 0)
(-0.0333203 -0.0139781 0)
(-0.0322395 -0.0224484 0)
(-0.0280685 -0.0318232 0)
(-0.0204359 -0.0384138 0)
(-0.00775392 -0.0348378 0)
(-0.000530698 0.0112007 0)
(-0.00260932 0.0177849 0)
(-0.00544635 0.0187192 0)
(-0.00805067 0.0184228 0)
(-0.0106583 0.0178324 0)
(-0.0132077 0.0170885 0)
(-0.0157283 0.0162036 0)
(-0.0182526 0.0151656 0)
(-0.0208235 0.0139402 0)
(-0.0234928 0.0124635 0)
(-0.0263157 0.0106286 0)
(-0.0293395 0.00826933 0)
(-0.0325768 0.00513365 0)
(-0.0359636 0.000852595 0)
(-0.0392907 -0.00505135 0)
(-0.0420601 -0.013224 0)
(-0.0432634 -0.0242171 0)
(-0.0408247 -0.0375819 0)
(-0.0349179 -0.0489065 0)
(-0.0159843 -0.0528955 0)
(-0.000555155 0.012782 0)
(-0.00278823 0.0203992 0)
(-0.00583614 0.0214583 0)
(-0.00859869 0.0211182 0)
(-0.0113545 0.0204691 0)
(-0.0140355 0.0196846 0)
(-0.0166873 0.0187921 0)
(-0.0193609 0.0177938 0)
(-0.0221259 0.0166703 0)
(-0.0250725 0.0153699 0)
(-0.0283126 0.0137924 0)
(-0.0319793 0.0117614 0)
(-0.0362157 0.00898152 0)
(-0.0411334 0.00497601 0)
(-0.0467683 -0.000979826 0)
(-0.0528848 -0.00987233 0)
(-0.058524 -0.0230706 0)
(-0.0610111 -0.0408918 0)
(-0.0614238 -0.0599626 0)
(-0.0329851 -0.085638 0)
(-0.000587528 0.0144762 0)
(-0.00301178 0.0232445 0)
(-0.00629902 0.0244156 0)
(-0.00921635 0.0240202 0)
(-0.0121058 0.0232756 0)
(-0.0148862 0.0224193 0)
(-0.0176201 0.0215068 0)
(-0.0203757 0.0205655 0)
(-0.0232492 0.0196012 0)
(-0.0263734 0.0185932 0)
(-0.029929 0.0174822 0)
(-0.0341593 0.0161374 0)
(-0.0393807 0.014295 0)
(-0.045977 0.0114524 0)
(-0.0543568 0.00674116 0)
(-0.065119 -0.00118041 0)
(-0.0780639 -0.0146463 0)
(-0.0897711 -0.0364469 0)
(-0.100063 -0.069681 0)
(-0.0506678 -0.147291 0)
(-0.000613012 0.016279 0)
(-0.00326645 0.0260998 0)
(-0.00684469 0.027303 0)
(-0.00993019 0.0267047 0)
(-0.0129701 0.0258695 0)
(-0.0158062 0.0249992 0)
(-0.0185424 0.0241394 0)
(-0.0212675 0.0233142 0)
(-0.0240982 0.0225558 0)
(-0.0271893 0.021895 0)
(-0.030762 0.0213447 0)
(-0.0351555 0.0208743 0)
(-0.0408943 0.0203542 0)
(-0.0487468 0.0194492 0)
(-0.0598231 0.0175073 0)
(-0.076036 0.0131524 0)
(-0.0980703 0.00277565 0)
(-0.117213 -0.024819 0)
(-0.129724 -0.0919601 0)
(-0.0365237 -0.244898 0)
(-0.000860389 0.0184012 0)
(-0.00394265 0.0302773 0)
(-0.00772904 0.0314746 0)
(-0.0108719 0.0310265 0)
(-0.0138306 0.0298338 0)
(-0.0166208 0.0286154 0)
(-0.0193083 0.0274461 0)
(-0.0219631 0.0264576 0)
(-0.0246748 0.0257497 0)
(-0.0275963 0.025428 0)
(-0.0309702 0.0256118 0)
(-0.0351848 0.0264567 0)
(-0.0408793 0.0281186 0)
(-0.0490425 0.0306825 0)
(-0.0612994 0.0340197 0)
(-0.0803374 0.0365004 0)
(-0.106545 0.0301941 0)
(-0.122647 -0.0148761 0)
(-0.126149 -0.139082 0)
(-0.00437029 -0.330654 0)
(-0.000224181 0.0210077 0)
(-0.00348118 0.0320536 0)
(-0.00827938 0.0329411 0)
(-0.0117445 0.0313657 0)
(-0.0153816 0.0302001 0)
(-0.0181785 0.0291861 0)
(-0.0206882 0.0283982 0)
(-0.0229538 0.0278054 0)
(-0.0251178 0.0274931 0)
(-0.0273152 0.0275971 0)
(-0.0297177 0.0283531 0)
(-0.0326287 0.0301081 0)
(-0.0366446 0.0334031 0)
(-0.0427619 0.0387428 0)
(-0.0528156 0.046837 0)
(-0.0691616 0.0543288 0)
(-0.094142 0.048279 0)
(-0.103898 -0.0189564 0)
(-0.0995843 -0.19308 0)
(-0.00598619 -0.387918 0)
(-0.00323999 0.0211705 0)
(-0.00801073 0.0403857 0)
(-0.0109209 0.0409694 0)
(-0.0139073 0.040909 0)
(-0.0160966 0.0382415 0)
(-0.0184958 0.0361206 0)
(-0.0207405 0.0340607 0)
(-0.0229072 0.0324848 0)
(-0.0249137 0.0314587 0)
(-0.0267592 0.0312276 0)
(-0.0284676 0.0320102 0)
(-0.0301043 0.0345117 0)
(-0.0320794 0.0396841 0)
(-0.0345465 0.0483992 0)
(-0.0393288 0.062833 0)
(-0.0455455 0.0742237 0)
(-0.0599083 0.0686429 0)
(-0.0556395 -0.0148131 0)
(-0.0627226 -0.225127 0)
(-0.00622452 -0.446703 0)
(0.00305818 0.0348918 0)
(-0.00187747 0.0372491 0)
(-0.0122642 0.0368994 0)
(-0.0152191 0.0327474 0)
(-0.0201841 0.0315977 0)
(-0.0220855 0.0306794 0)
(-0.0240743 0.0301296 0)
(-0.025353 0.0296454 0)
(-0.0262074 0.0294045 0)
(-0.0266046 0.0294865 0)
(-0.0262776 0.0303673 0)
(-0.0248354 0.0323786 0)
(-0.0225147 0.0369962 0)
(-0.0170885 0.0443706 0)
(-0.0127074 0.0573088 0)
(-0.000823119 0.0677249 0)
(0.00141209 0.0589715 0)
(0.0108767 -0.0220311 0)
(-0.0209983 -0.234294 0)
(0.0242064 -0.464328 0)
(-0.00270224 0.0150214 0)
(-0.00750904 0.0595153 0)
(-0.00356545 0.0561292 0)
(-0.0128428 0.0549333 0)
(-0.0165493 0.0488155 0)
(-0.0208367 0.0448875 0)
(-0.0233908 0.0408895 0)
(-0.0250183 0.038097 0)
(-0.0256288 0.0354507 0)
(-0.025153 0.0340207 0)
(-0.0237 0.032595 0)
(-0.0203929 0.0325365 0)
(-0.0160198 0.0351944 0)
(-0.00628304 0.0392718 0)
(0.00443761 0.0528955 0)
(0.0268687 0.0630926 0)
(0.0401397 0.0650044 0)
(0.0809656 0.00943995 0)
(0.048618 -0.213158 0)
(0.0609549 -0.436923 0)
(-0.0753641 0.0548454 0)
(-0.0546329 0.0318639 0)
(-0.0751294 0.0387633 0)
(-0.0550675 0.0376918 0)
(-0.0504076 0.033737 0)
(-0.0362561 0.0315708 0)
(-0.0253488 0.0295169 0)
(-0.0141263 0.0274531 0)
(-0.0023476 0.0260622 0)
(0.00784701 0.0241547 0)
(0.0188635 0.0232227 0)
(0.0302758 0.0216404 0)
(0.0387586 0.0213481 0)
(0.0583519 0.0219545 0)
(0.0652356 0.0213624 0)
(0.106637 0.0231387 0)
(0.117223 -0.00451393 0)
(0.176532 -0.0428612 0)
(0.146485 -0.21929 0)
(0.111011 -0.391337 0)
(0.0854642 0.122598 0)
(0.114468 0.07419 0)
(0.168783 0.0562889 0)
(0.214109 0.0423367 0)
(0.245257 0.0338723 0)
(0.279599 0.0276742 0)
(0.300494 0.0228025 0)
(0.331304 0.0204104 0)
(0.344408 0.017025 0)
(0.375191 0.0161328 0)
(0.380143 0.0141079 0)
(0.414446 0.0130272 0)
(0.411235 0.0122563 0)
(0.447859 0.0110904 0)
(0.440916 0.00963301 0)
(0.474103 0.00857134 0)
(0.459643 0.000438995 0)
(0.470933 -0.0178119 0)
(0.378885 -0.0598932 0)
(0.234599 -0.13025 0)
)
;

boundaryField
{
    movingWall
    {
        type            fixedValue;
        value           uniform (1 0 0);
    }
    fixedWalls
    {
        type            noSlip;
    }
    frontAndBack
    {
        type            empty;
    }
}


// ************************************************************************* //
