/*--------------------------------*- C++ -*----------------------------------*\
  =========                 |
  \\      /  F ield         | OpenFOAM: The Open Source CFD Toolbox
   \\    /   O peration     | Website:  https://openfoam.org
    \\  /    A nd           | Version:  9
     \\/     M anipulation  |
\*---------------------------------------------------------------------------*/
FoamFile
{
    format      ascii;
    class       volScalarField;
    location    "9";
    object      p;
}
// * * * * * * * * * * * * * * * * * * * * * * * * * * * * * * * * * * * * * //

dimensions      [0 2 -2 0 0 0 0];

internalField   nonuniform List<scalar> 
8000
(
-3.09674e-06
2.54065e-06
5.26566e-05
0.000135791
0.000257578
0.00042033
0.000627606
0.000883357
0.00119158
0.00155571
0.00197778
0.00245741
0.00299001
0.00356478
0.00416218
0.00475221
0.00529464
0.00573455
0.00604101
0.00612741
-1.22558e-05
-6.35783e-06
4.40203e-05
0.000125763
0.000245199
0.000404661
0.000607808
0.000858686
0.00116146
0.00151998
0.00193691
0.00241278
0.0029438
0.00352016
0.00412355
0.00472665
0.00528729
0.00574708
0.00607167
0.00616226
-7.64868e-05
-7.26025e-05
-2.47632e-05
5.2684e-05
0.000166409
0.000318758
0.000513618
0.000755427
0.00104902
0.00139923
0.00181029
0.00228462
0.00282167
0.00341504
0.00404898
0.00469568
0.00531121
0.00582891
0.00620122
0.00631066
-0.000182825
-0.000180888
-0.000137073
-6.62676e-05
3.84943e-05
0.000179601
0.000361241
0.000588362
0.000866696
0.0012026
0.0016026
0.00207249
0.00261565
0.00323067
0.00390718
0.00461745
0.00531982
0.0059358
0.00639292
0.00654765
-0.000333892
-0.000334454
-0.000296319
-0.000234618
-0.000142184
-1.66659e-05
0.000146357
0.000352352
0.000608015
0.000921369
0.00130168
0.00175896
0.00230258
0.00293838
0.0036637
0.00445869
0.00528047
0.00604316
0.00663253
0.00687551
-0.0005273
-0.000530917
-0.000500054
-0.000449983
-0.000373464
-0.000268336
-0.000130175
4.6706e-05
0.000269721
0.000548307
0.000894294
0.00132207
0.00184809
0.00248836
0.00325325
0.00413796
0.00510396
0.00607015
0.0068622
0.00726738
-0.000759504
-0.000766706
-0.000744612
-0.000708663
-0.000651736
-0.000572128
-0.000465806
-0.00032742
-0.000149627
7.7623e-05
0.000367817
0.000738769
0.00121348
0.00181991
0.00258657
0.0035307
0.00463718
0.00585921
0.00693006
0.00762773
-0.00102614
-0.00103739
-0.00102532
-0.00100572
-0.000971831
-0.000922776
-0.000855492
-0.000765741
-0.000647396
-0.000491594
-0.000285438
-1.02293e-05
0.000360478
0.000862951
0.0015449
0.00245971
0.00364858
0.00504222
0.00644124
0.00762635
-0.00132207
-0.00133768
-0.00133645
-0.00133481
-0.00132667
-0.00131244
-0.00129073
-0.00125943
-0.0012151
-0.00115227
-0.00106219
-0.000930979
-0.000736639
-0.000444172
-1.7298e-06
0.000664076
0.00165216
0.0030696
0.00451847
0.00607807
-0.0016417
-0.00166172
-0.00167127
-0.00168812
-0.00170702
-0.00173019
-0.00175865
-0.00179341
-0.00183536
-0.00188498
-0.00194181
-0.00200334
-0.00206374
-0.00210932
-0.00211759
-0.00204413
-0.00179881
-0.00105333
0.000387692
0.0034392
-0.00197965
-0.00200419
-0.00202358
-0.00205829
-0.00210331
-0.00216383
-0.00224369
-0.00234795
-0.00248336
-0.00265904
-0.0028875
-0.00318469
-0.00357386
-0.00407888
-0.00473095
-0.00547807
-0.00619501
-0.00525218
-0.00162784
0.00200677
-0.00233019
-0.00235723
-0.00238222
-0.00243061
-0.00249783
-0.00259269
-0.0027208
-0.00289172
-0.00311824
-0.00341818
-0.00381958
-0.00435696
-0.00509583
-0.00608748
-0.00744773
-0.00896459
-0.0105394
-0.00888046
-0.00376231
-0.000898078
-0.00269582
-0.00273012
-0.00275824
-0.00282156
-0.00290371
-0.00302396
-0.00318853
-0.0034129
-0.00371621
-0.00412369
-0.00468269
-0.00543558
-0.00650964
-0.00792278
-0.0100569
-0.0122693
-0.0155444
-0.0147233
-0.0114764
-0.00666341
-0.00306424
-0.00308485
-0.0030983
-0.00314646
-0.00323097
-0.00336886
-0.00356672
-0.0038385
-0.00420542
-0.00469131
-0.005361
-0.00626103
-0.00758321
-0.00927776
-0.0122174
-0.0149607
-0.0211095
-0.021588
-0.0206736
-0.01208
-0.0034503
-0.00351972
-0.00351588
-0.00360542
-0.00367456
-0.0038096
-0.00399526
-0.00426377
-0.00463905
-0.00514976
-0.00586419
-0.00680628
-0.00824208
-0.00996428
-0.013297
-0.016297
-0.0239798
-0.0242188
-0.0242555
-0.0143228
-0.00399234
-0.00386149
-0.00379586
-0.00373307
-0.00376971
-0.00389294
-0.00410456
-0.00440572
-0.00481781
-0.00535291
-0.00607827
-0.00698582
-0.00837313
-0.00992482
-0.0128987
-0.015429
-0.0212374
-0.0214342
-0.0218371
-0.0110702
-0.00412866
-0.00452248
-0.00435369
-0.00454403
-0.00447885
-0.00456265
-0.00465995
-0.00486341
-0.00517691
-0.00561952
-0.0062504
-0.00702788
-0.00825131
-0.00948025
-0.0118801
-0.0134167
-0.0170307
-0.0158423
-0.0155714
-0.000109897
-0.0061285
-0.00470941
-0.00451933
-0.00403713
-0.00395672
-0.00400937
-0.00421331
-0.00449529
-0.00490094
-0.00537121
-0.00601193
-0.00669703
-0.00773428
-0.00858634
-0.0101715
-0.0105228
-0.0120618
-0.0092348
-0.00682876
0.0183215
-0.00450019
-0.00685181
-0.00579523
-0.0060973
-0.00558057
-0.0054771
-0.00534974
-0.00537364
-0.00555045
-0.00584234
-0.00632782
-0.00689187
-0.00789785
-0.00873998
-0.01065
-0.0111126
-0.012943
-0.00698714
0.00150351
0.0444017
-0.0178206
-0.00520775
-0.00444964
-0.00387555
-0.00365089
-0.00366396
-0.00392662
-0.00417048
-0.00462024
-0.00500913
-0.00569774
-0.00622658
-0.00727587
-0.00779136
-0.00871858
-0.00715922
-0.00338233
0.0138291
0.0450105
0.119564
5.23494e-07
1.60703e-06
5.14721e-05
0.000134266
0.000256194
0.000419282
0.0006271
0.000883683
0.00119315
0.00155915
0.00198397
0.00246755
0.00300566
0.00358764
0.00419424
0.00479517
0.00534899
0.00579718
0.00610792
0.00618264
-1.9155e-06
-9.0882e-07
4.97998e-05
0.000131326
0.000250805
0.000410325
0.000613572
0.000864658
0.00116788
0.0015272
0.00194555
0.00242387
0.00295879
0.00354096
0.00415302
0.00476617
0.00533821
0.00580699
0.006137
0.0062165
-6.41835e-05
-6.58635e-05
-1.76478e-05
5.95473e-05
0.000173285
0.000325643
0.000520534
0.000762456
0.00105637
0.00140736
0.00181988
0.00229681
0.00283828
0.00343867
0.00408297
0.00474307
0.00537455
0.00590609
0.00628738
0.00638703
-0.000168988
-0.00017291
-0.000128659
-5.81034e-05
4.66798e-05
0.0001878
0.000369477
0.000596719
0.000875389
0.0012121
0.00161379
0.00208679
0.00263528
0.00325855
0.0039477
0.00467859
0.00540529
0.00604601
0.00652139
0.0066741
-0.000319365
-0.000326014
-0.00028741
-0.000225931
-0.000133412
-7.78017e-06
0.000155422
0.00036173
0.000617988
0.000932501
0.00131502
0.00177636
0.00232714
0.00297492
0.00371827
0.00454199
0.00540336
0.00621213
0.00684254
0.00711857
-0.000512416
-0.000522343
-0.000490992
-0.000441112
-0.000364433
-0.000259066
-0.000120535
5.69395e-05
0.000280934
0.000561203
0.000910159
0.0013432
0.00187856
0.00253491
0.00332678
0.00425143
0.00528506
0.00634048
0.00722666
0.00777578
-0.000744402
-0.000758151
-0.000735564
-0.00069979
-0.000642651
-0.000562699
-0.00045583
-0.000316584
-0.000137413
9.20881e-05
0.000386051
0.00076354
0.00124985
0.00187703
0.00267941
0.00368213
0.00490149
0.00628469
0.00757085
0.00872342
-0.00101091
-0.00102896
-0.00101643
-0.000997026
-0.000962921
-0.000913472
-0.000845522
-0.000754705
-0.000634678
-0.000476194
-0.000265645
1.69295e-05
0.000400433
0.000925927
0.00164892
0.00263855
0.00396177
0.00567826
0.00757359
0.00979098
-0.00130676
-0.00132948
-0.00132786
-0.0013265
-0.00131822
-0.00130363
-0.00128124
-0.0012488
-0.00120266
-0.00113701
-0.0010426
-0.000904601
-0.000699217
-0.000388202
8.45852e-05
0.000801631
0.00190953
0.00356104
0.0055132
0.00864295
-0.00162626
-0.00165367
-0.00166292
-0.00168014
-0.00169907
-0.00172208
-0.00175
-0.00178371
-0.00182389
-0.00187082
-0.00192393
-0.00198111
-0.00203798
-0.00208675
-0.00212508
-0.00215183
-0.00203444
-0.00126295
9.44885e-05
0.00429546
-0.00196414
-0.00199672
-0.00201619
-0.00205157
-0.00209692
-0.00215741
-0.00223685
-0.00234032
-0.00247436
-0.00264825
-0.0028751
-0.00317413
-0.00357581
-0.00412992
-0.0049426
-0.00611893
-0.00757819
-0.00744646
-0.00503551
-0.000326166
-0.0023133
-0.00234827
-0.00237332
-0.00242214
-0.00249032
-0.00258578
-0.00271432
-0.00288489
-0.00311033
-0.00340917
-0.00381003
-0.00435659
-0.00512721
-0.0062301
-0.00790608
-0.0101869
-0.0132077
-0.0133671
-0.0104093
-0.005654
-0.0026789
-0.00272432
-0.00275348
-0.00281841
-0.00290208
-0.00302265
-0.00318722
-0.00341083
-0.00371264
-0.00412018
-0.00467776
-0.00544631
-0.00656003
-0.0081328
-0.0106568
-0.0138359
-0.0189583
-0.0198827
-0.018923
-0.0125023
-0.00303891
-0.00307027
-0.0030847
-0.00313274
-0.00321999
-0.00335921
-0.00355881
-0.0038315
-0.00419747
-0.00468573
-0.00535295
-0.00625682
-0.00762192
-0.00940138
-0.0128147
-0.0163263
-0.0241204
-0.0250173
-0.0264545
-0.0172726
-0.00341662
-0.00350941
-0.00350868
-0.00360215
-0.00367573
-0.00381072
-0.00399641
-0.00426397
-0.00463575
-0.00514358
-0.00585199
-0.00676997
-0.00827613
-0.00982334
-0.0139033
-0.0170937
-0.02574
-0.0255713
-0.0280639
-0.018095
-0.00393565
-0.00383263
-0.00376893
-0.0036978
-0.00374166
-0.00386863
-0.00408358
-0.00438841
-0.00479901
-0.00532875
-0.00605073
-0.00691128
-0.00831921
-0.00982406
-0.0130272
-0.01573
-0.0218385
-0.0219709
-0.0247009
-0.0130123
-0.00390249
-0.00439453
-0.00430523
-0.00452235
-0.00447193
-0.00455457
-0.00464947
-0.00485017
-0.00515706
-0.00558517
-0.00620279
-0.00694095
-0.00813534
-0.00932752
-0.011788
-0.0135123
-0.0172634
-0.0164996
-0.0176663
-0.000693793
-0.00600567
-0.00472197
-0.00448566
-0.00388507
-0.00382323
-0.00389915
-0.00411748
-0.00442426
-0.00483062
-0.00529758
-0.0059203
-0.00658803
-0.00755584
-0.00841878
-0.00991694
-0.0105331
-0.0117801
-0.00982887
-0.0076231
0.0185846
-0.00299494
-0.00614348
-0.00538966
-0.00586527
-0.00539653
-0.00538428
-0.0052751
-0.00533327
-0.00550344
-0.00579863
-0.00622696
-0.00677667
-0.00767746
-0.00852124
-0.0103923
-0.0113387
-0.0135043
-0.00879572
0.000392338
0.0463382
-0.0172062
-0.00449689
-0.00364077
-0.00334083
-0.00326843
-0.00335842
-0.00365206
-0.00394399
-0.00439735
-0.00482612
-0.00543692
-0.00603084
-0.00690708
-0.00759723
-0.00833201
-0.00716195
-0.00336844
0.0140248
0.0508734
0.135109
7.1516e-06
6.53778e-06
5.64475e-05
0.000139293
0.000261643
0.000425456
0.000634396
0.000892637
0.00120451
0.00157392
0.00200352
0.00249365
0.00304049
0.00363381
0.00425444
0.0048712
0.0054411
0.00590223
0.00622119
0.00629219
7.73241e-06
6.78909e-06
5.77257e-05
0.000139263
0.000259042
0.00041909
0.000623196
0.000875609
0.00118081
0.00154309
0.00196576
0.0024502
0.00299347
0.00358651
0.00421354
0.00484382
0.00543384
0.00591776
0.00625787
0.00633426
-5.30692e-05
-5.69959e-05
-8.53331e-06
6.86223e-05
0.000182604
0.00033542
0.0005311
0.000774294
0.00107018
0.00142417
0.00184122
0.00232482
0.00287582
0.00348945
0.00415134
0.00483306
0.00548838
0.00604131
0.0064376
0.00653609
-0.000156523
-0.000162852
-0.000118332
-4.78494e-05
5.71427e-05
0.000198682
0.00038112
0.000609636
0.000890354
0.00123027
0.0016369
0.00211741
0.00267689
0.00331494
0.00402767
0.00478778
0.00554855
0.00622301
0.00672258
0.00687998
-0.000305977
-0.000315145
-0.000276256
-0.000214867
-0.000122144
3.91353e-06
0.000167908
0.000375569
0.000634043
0.000952102
0.00134022
0.00181034
0.00237484
0.00304417
0.00381419
0.00467736
0.00558886
0.00645218
0.00712638
0.00742092
-0.000498271
-0.000510817
-0.000479171
-0.000429399
-0.000352529
-0.000246742
-0.000107402
7.14799e-05
0.000297812
0.00058188
0.000936944
0.00137975
0.00193059
0.0026109
0.00343714
0.00441633
0.00552383
0.00666903
0.00763785
0.00824009
-0.000729499
-0.000745992
-0.000723115
-0.000687495
-0.000630219
-0.000549909
-0.000442299
-0.000301722
-0.000120296
0.000112926
0.000412951
0.000800316
0.00130283
0.00195658
0.00280285
0.00386965
0.00519217
0.00672166
0.00816489
0.00939243
-0.000995132
-0.00101611
-0.00100332
-0.000984165
-0.000950045
-0.000900393
-0.000831905
-0.000740037
-0.000618171
-0.000456607
-0.000240976
5.0002e-05
0.00044758
0.000996882
0.00175767
0.00279293
0.00426278
0.00620598
0.008343
0.0105177
-0.0012899
-0.00131579
-0.00131399
-0.00131303
-0.00130495
-0.00129043
-0.00126787
-0.00123491
-0.00118776
-0.00112041
-0.00102325
-0.000880969
-0.000668663
-0.000345999
0.00014645
0.000905604
0.00206004
0.0039185
0.00620579
0.00942017
-0.00160791
-0.00163878
-0.00164793
-0.00166577
-0.00168521
-0.00170868
-0.00173697
-0.00177093
-0.00181128
-0.00185845
-0.00191234
-0.00197202
-0.00203505
-0.00209867
-0.00217609
-0.00228592
-0.00223011
-0.00114431
0.00101026
0.00526564
-0.00194378
-0.00198036
-0.00199999
-0.00203635
-0.00208261
-0.00214398
-0.00222433
-0.00232893
-0.00246459
-0.00264122
-0.00287351
-0.00318391
-0.00360918
-0.00421445
-0.00513888
-0.00651494
-0.00829998
-0.008022
-0.0053448
-0.000770501
-0.00228934
-0.00232853
-0.00235389
-0.00240384
-0.00247351
-0.00257053
-0.00270082
-0.00287337
-0.00310155
-0.00340487
-0.00381391
-0.00437805
-0.00518488
-0.00636817
-0.00822207
-0.0108698
-0.0144427
-0.0150574
-0.013033
-0.00773858
-0.00265035
-0.00270091
-0.00273082
-0.00279751
-0.00288335
-0.00300601
-0.00317282
-0.00339895
-0.00370391
-0.00411652
-0.00468169
-0.00546858
-0.00661537
-0.00828429
-0.0109985
-0.0145185
-0.0202031
-0.0216575
-0.021435
-0.0142708
-0.00300084
-0.00303861
-0.00305436
-0.00310399
-0.00319406
-0.00333573
-0.0035381
-0.00381358
-0.0041822
-0.00467467
-0.00534487
-0.00626056
-0.00763539
-0.00949301
-0.0129578
-0.0165802
-0.024134
-0.0254594
-0.0264254
-0.0181222
-0.00336201
-0.00346355
-0.00346594
-0.00356233
-0.00364091
-0.00377941
-0.00396837
-0.00423863
-0.0046118
-0.00512075
-0.00582323
-0.00675207
-0.00822305
-0.00990188
-0.0137562
-0.0168689
-0.0242255
-0.0249449
-0.0263783
-0.0178867
-0.00387039
-0.00377915
-0.00371739
-0.00364468
-0.00369206
-0.00382164
-0.00403974
-0.00434767
-0.00475827
-0.00528804
-0.00599543
-0.00684428
-0.00822775
-0.00971006
-0.01273
-0.0153055
-0.0203627
-0.0203917
-0.0221374
-0.012163
-0.00373266
-0.00425764
-0.00420281
-0.00442932
-0.00439235
-0.00448096
-0.00458128
-0.00478586
-0.00509344
-0.00552435
-0.00612813
-0.00684123
-0.00799135
-0.00918259
-0.0114585
-0.0131916
-0.0161705
-0.0153099
-0.0152216
-0.000296608
-0.0059431
-0.00468366
-0.00441244
-0.00376477
-0.00370261
-0.00378215
-0.00400495
-0.00432277
-0.00473053
-0.00521022
-0.00581338
-0.00647058
-0.00737479
-0.00825625
-0.00956754
-0.0103091
-0.0110554
-0.00944723
-0.00627999
0.0188457
-0.00252562
-0.00574838
-0.00510837
-0.00561426
-0.00516087
-0.0051813
-0.00508548
-0.00515785
-0.00533761
-0.00564223
-0.0060558
-0.0066032
-0.0074408
-0.00832642
-0.0100411
-0.0112313
-0.013187
-0.00881757
0.000856428
0.0470883
-0.0170952
-0.00426612
-0.00335155
-0.00311484
-0.00304526
-0.00315414
-0.00344244
-0.00376067
-0.00420377
-0.00465893
-0.0052129
-0.00584114
-0.00662324
-0.00732505
-0.00798254
-0.00688684
-0.00301224
0.0145835
0.0525579
0.137572
1.45971e-05
1.3044e-05
6.30583e-05
0.000146104
0.00026907
0.000433911
0.000644409
0.000904919
0.00122002
0.00159397
0.00202982
0.00252834
0.00308615
0.00369335
0.00433081
0.00496645
0.00555557
0.00603269
0.00636246
0.00643256
1.67851e-05
1.48783e-05
6.60197e-05
0.000147755
0.000268094
0.000429058
0.000634568
0.000889057
0.00119727
0.00156383
0.00199253
0.00248523
0.00303949
0.00364691
0.00429168
0.00494248
0.00555401
0.00605646
0.00640943
0.00648558
-4.30018e-05
-4.80164e-05
6.58443e-07
7.7983e-05
0.000192493
0.000346188
0.000543238
0.000788492
0.00108742
0.00144584
0.00186925
0.0023618
0.00292516
0.00355528
0.00423864
0.00494607
0.0056295
0.00620799
0.0066228
0.00672253
-0.000145411
-0.000152903
-0.000108161
-3.75351e-05
6.79582e-05
0.000210345
0.000394133
0.000624725
0.000908574
0.00125316
0.00166667
0.00215724
0.00273119
0.00338996
0.00412881
0.00492288
0.00572322
0.0064369
0.00696554
0.00712796
-0.000294051
-0.000304465
-0.000265357
-0.00020385
-0.000110644
1.62464e-05
0.000181594
0.000391372
0.000653103
0.000976123
0.00137174
0.00185311
0.00243419
0.00312706
0.00393173
0.00484129
0.0058099
0.00673479
0.00745924
0.00776762
-0.000485631
-0.000499522
-0.000467671
-0.000417821
-0.000340508
-0.000233932
-9.32813e-05
8.76904e-05
0.000317294
0.000606448
0.000969387
0.00142437
0.001994
0.00270308
0.00357222
0.00461107
0.00579889
0.00704043
0.00809802
0.00873032
-0.000716157
-0.000734107
-0.000711059
-0.000675432
-0.000617802
-0.000536818
-0.00042805
-0.000285591
-0.000101168
0.000136786
0.000444265
0.000843409
0.00136461
0.00204796
0.00294077
0.00407962
0.00550607
0.00717952
0.00877815
0.0100357
-0.000981015
-0.00100358
-0.000990679
-0.000971631
-0.000937318
-0.000887211
-0.000817875
-0.000724586
-0.000600437
-0.000435263
-0.000213905
8.62352e-05
0.000498706
0.00107252
0.00187335
0.00297896
0.0045442
0.00666385
0.00901604
0.011198
-0.00127481
-0.00130244
-0.00130063
-0.00129996
-0.00129192
-0.00127728
-0.00125436
-0.00122074
-0.00117254
-0.00110364
-0.00100434
-0.00085921
-0.000643294
-0.000316703
0.00017579
0.000915526
0.00207185
0.00404035
0.00666998
0.00989687
-0.00159146
-0.00162422
-0.00163349
-0.00165183
-0.00167164
-0.00169544
-0.00172401
-0.00175829
-0.00179921
-0.00184768
-0.00190456
-0.00197102
-0.00204914
-0.0021465
-0.00230224
-0.00257491
-0.00275105
-0.00169815
0.000802016
0.00497052
-0.00192539
-0.00196413
-0.0019841
-0.00202129
-0.0020683
-0.00213048
-0.00221178
-0.00231779
-0.00245588
-0.00263717
-0.00287883
-0.0032089
-0.0036755
-0.00436715
-0.00547781
-0.00723024
-0.00953115
-0.00953611
-0.00709492
-0.00227702
-0.00226769
-0.00230923
-0.00233508
-0.00238607
-0.00245688
-0.00255523
-0.00268717
-0.002862
-0.00309391
-0.00340421
-0.00382718
-0.0044203
-0.00528711
-0.00659219
-0.00867681
-0.0117495
-0.0161165
-0.0172311
-0.015938
-0.0102275
-0.00262417
-0.00267759
-0.00270844
-0.00277679
-0.00286433
-0.00298875
-0.00315755
-0.00338627
-0.00369524
-0.00411509
-0.00469403
-0.00550911
-0.00671272
-0.00848667
-0.0114325
-0.0152563
-0.0217114
-0.0234531
-0.0241414
-0.0168306
-0.00296645
-0.00300799
-0.00302507
-0.00307632
-0.0031682
-0.00331168
-0.00351615
-0.00379408
-0.00416588
-0.00466362
-0.00534203
-0.00627489
-0.00768336
-0.00957969
-0.013163
-0.0168873
-0.0245976
-0.0260086
-0.02766
-0.0196989
-0.00331427
-0.00342105
-0.00342624
-0.00352588
-0.00360783
-0.00374889
-0.00393995
-0.00421172
-0.00458564
-0.00509576
-0.00579734
-0.00672636
-0.00820155
-0.0098809
-0.0135843
-0.0167915
-0.0236495
-0.0245039
-0.0267407
-0.018043
-0.00380722
-0.0037241
-0.00366661
-0.00359545
-0.00364442
-0.00377567
-0.00399531
-0.00430436
-0.00471416
-0.00524219
-0.00594112
-0.00677553
-0.00813747
-0.0095801
-0.0124466
-0.0148776
-0.0195067
-0.0192616
-0.021559
-0.011327
-0.00361758
-0.00416052
-0.00412034
-0.00435679
-0.00432749
-0.00442089
-0.00452381
-0.00472872
-0.00503379
-0.00546031
-0.00605119
-0.00674344
-0.00786249
-0.00901716
-0.0111806
-0.0128181
-0.0155347
-0.0144165
-0.0145915
0.000547099
-0.00582175
-0.00458472
-0.00433744
-0.00367315
-0.00360764
-0.00368866
-0.00391276
-0.00423362
-0.00463971
-0.0051183
-0.00570658
-0.00635133
-0.00721294
-0.00807588
-0.00928483
-0.010038
-0.010672
-0.00909627
-0.00632959
0.0196158
-0.00223761
-0.00558775
-0.0049591
-0.00549092
-0.00503781
-0.0050688
-0.00497732
-0.00504903
-0.00522628
-0.00552634
-0.00592644
-0.00645639
-0.00726073
-0.00814721
-0.00977639
-0.0110401
-0.0130823
-0.00860557
0.000455527
0.0486085
-0.0169081
-0.00406174
-0.0031153
-0.00290363
-0.00285406
-0.00298002
-0.00327902
-0.00360548
-0.00405158
-0.00451078
-0.00504856
-0.00567211
-0.00642059
-0.00708996
-0.00772067
-0.00655376
-0.00280049
0.0153667
0.0531617
0.140589
2.22086e-05
2.04097e-05
7.06861e-05
0.000154164
0.000277954
0.000444068
0.000656443
0.000919638
0.00123851
0.00161766
0.00206055
0.0025684
0.00313824
0.00376046
0.00441578
0.0050713
0.00568052
0.0061746
0.00651603
0.00658669
2.50659e-05
2.28535e-05
7.42824e-05
0.00015644
0.00027758
0.000439776
0.000647106
0.000904209
0.00121611
0.00158781
0.00202353
0.00252564
0.00309217
0.00371528
0.00437902
0.0050514
0.00568526
0.006207
0.00657339
0.00665039
-3.41025e-05
-3.94797e-05
9.48149e-06
8.72077e-05
0.0002025
0.000357407
0.000556269
0.000804158
0.00110685
0.00147058
0.00190141
0.00240411
0.00298114
0.00362913
0.00433498
0.00506888
0.00578072
0.00638476
0.00681772
0.00691833
-0.000135806
-0.000143698
-9.86745e-05
-2.76727e-05
7.85757e-05
0.00022215
0.000407738
0.000640988
0.000928705
0.00127886
0.00170032
0.00220211
0.00279171
0.00347209
0.00423808
0.00506624
0.00590514
0.00665577
0.00721119
0.00737434
-0.00028382
-0.000294675
-0.0002553
-0.00019345
-9.95262e-05
2.85127e-05
0.00019563
0.000408069
0.000673745
0.00100257
0.00140665
0.00190029
0.00249885
0.00321604
0.00405545
0.00500982
0.00603172
0.00701144
0.00777844
0.00808623
-0.000474805
-0.000489183
-0.000457094
-0.000406957
-0.000328995
-0.000221357
-7.90411e-05
0.000104478
0.000337927
0.000632853
0.00100444
0.00147235
0.00206131
0.00279892
0.00370918
0.00480295
0.00606237
0.00738525
0.00851387
0.00913636
-0.000704715
-0.000723206
-0.000699968
-0.000664146
-0.00060599
-0.000524116
-0.000413921
-0.000269249
-8.14369e-05
0.000161679
0.00047702
0.000888145
0.0014276
0.00213844
0.00307355
0.004275
0.00578933
0.00757917
0.00930132
0.0105012
-0.000968859
-0.000992025
-0.000979013
-0.000959905
-0.00092526
-0.000874546
-0.000804195
-0.000709313
-0.000582726
-0.000413855
-0.000186879
0.000121885
0.000547804
0.0011429
0.00197607
0.00313177
0.00477238
0.00702844
0.00955612
0.0115922
-0.00126173
-0.00129004
-0.00128822
-0.00128767
-0.00127958
-0.00126472
-0.00124139
-0.0012071
-0.00115796
-0.00108783
-0.000987044
-0.000840351
-0.000623296
-0.000297374
0.000187653
0.000901916
0.00202226
0.00406925
0.00695581
0.0100568
-0.00157707
-0.00161058
-0.00161998
-0.00163866
-0.00165874
-0.0016828
-0.00171168
-0.00174645
-0.00178831
-0.00183873
-0.00189974
-0.00197474
-0.00207036
-0.00220425
-0.00243878
-0.00286816
-0.00330713
-0.00227051
0.000566435
0.00478963
-0.00190911
-0.00194872
-0.001969
-0.00200682
-0.00205445
-0.00211739
-0.00219974
-0.00230743
-0.00244848
-0.00263532
-0.00288758
-0.00323829
-0.00374569
-0.00451811
-0.00579035
-0.0078385
-0.0107212
-0.0108291
-0.00831462
-0.00305266
-0.00224844
-0.00229095
-0.00231728
-0.0023691
-0.00244084
-0.00254037
-0.00267395
-0.0028513
-0.00308751
-0.00340562
-0.00384312
-0.00446429
-0.00538677
-0.00680102
-0.00911562
-0.0125636
-0.0176772
-0.0188256
-0.0176408
-0.0113033
-0.00260072
-0.00265526
-0.00268681
-0.00275642
-0.00284525
-0.00297121
-0.00314194
-0.00337343
-0.00368685
-0.00411452
-0.00470746
-0.00554968
-0.00680922
-0.00867869
-0.0118507
-0.0159113
-0.0229805
-0.0243753
-0.0246909
-0.017629
-0.00293657
-0.00297974
-0.00299778
-0.0030504
-0.0031435
-0.00328838
-0.00349454
-0.00377469
-0.00414971
-0.00465271
-0.00534011
-0.00628864
-0.00773483
-0.00965756
-0.0133741
-0.0171446
-0.0249196
-0.0258009
-0.0273202
-0.0199327
-0.00327493
-0.00338353
-0.00338978
-0.00349173
-0.00357557
-0.00371847
-0.00391096
-0.00418384
-0.00455853
-0.00506931
-0.0057716
-0.00669837
-0.00818552
-0.00985085
-0.0134876
-0.0166695
-0.0230654
-0.023493
-0.0256171
-0.01754
-0.0037561
-0.00367688
-0.00362099
-0.00355251
-0.0036021
-0.00373423
-0.00395433
-0.00426335
-0.00467185
-0.0051969
-0.00588868
-0.00671147
-0.00805288
-0.00945767
-0.0121859
-0.0144566
-0.0186113
-0.0178736
-0.0199938
-0.0104836
-0.00354976
-0.00409778
-0.00405428
-0.00429754
-0.00427113
-0.00436748
-0.00447138
-0.00467546
-0.00497769
-0.00539834
-0.00597888
-0.00665523
-0.00774449
-0.00885591
-0.0109133
-0.0124286
-0.0148365
-0.0133597
-0.0133952
0.001214
-0.00573156
-0.00451856
-0.00425737
-0.00360666
-0.00353789
-0.00361918
-0.00384217
-0.00416199
-0.0045651
-0.00503905
-0.00561533
-0.00624435
-0.00707545
-0.00790688
-0.00902377
-0.00972218
-0.0102031
-0.00850196
-0.00576193
0.020127
-0.00213258
-0.00551015
-0.00487456
-0.00541404
-0.00495952
-0.00499117
-0.00489937
-0.00496736
-0.0051397
-0.00543322
-0.00582389
-0.00633599
-0.00712184
-0.00798781
-0.0095326
-0.0107912
-0.0127371
-0.00817112
0.00079674
0.0494034
-0.0168252
-0.00397059
-0.00300316
-0.00279327
-0.00274972
-0.00287907
-0.00317928
-0.00350533
-0.00394946
-0.00440721
-0.00493294
-0.00554701
-0.00627263
-0.00691448
-0.00748685
-0.00625566
-0.00241298
0.0159745
0.0537971
0.141783
2.93508e-05
2.75364e-05
7.813e-05
0.000162149
0.000286863
0.000454366
0.000668752
0.000934784
0.00125758
0.00164209
0.00209216
0.00260939
0.00319121
0.0038282
0.00450093
0.00517565
0.00580416
0.00631453
0.00666715
0.00673868
3.24958e-05
3.02467e-05
8.20024e-05
0.000164699
0.000286754
0.000450322
0.000659639
0.000919549
0.00123535
0.00161239
0.00205533
0.00256697
0.00314573
0.00378426
0.00446643
0.00515957
0.0058147
0.00635473
0.0067338
0.00681171
-2.62897e-05
-3.17174e-05
1.75684e-05
9.58223e-05
0.000212018
0.000368288
0.000569138
0.000819862
0.00112654
0.00149579
0.00193419
0.00244709
0.00303763
0.00370303
0.00443045
0.00518945
0.00592787
0.00655553
0.0070051
0.00710583
-0.00012752
-0.000135478
-9.01375e-05
-1.86289e-05
8.85006e-05
0.000233414
0.00042098
0.000657086
0.000948876
0.00130478
0.00173429
0.0022472
0.00285187
0.00355223
0.00434461
0.00520473
0.00607898
0.00686274
0.00744199
0.00760314
-0.000275066
-0.000286006
-0.000246334
-0.000184014
-8.92512e-05
4.00766e-05
0.000209124
0.000424392
0.000694175
0.00102891
0.00144146
0.00194707
0.0025621
0.0032997
0.00417363
0.00516939
0.00623924
0.00726687
0.0080707
0.00837079
-0.000465577
-0.000480065
-0.000447714
-0.000397166
-0.000318446
-0.000209626
-6.55164e-05
0.000120672
0.000358058
0.000658765
0.00103883
0.00151918
0.00212649
0.00289229
0.00383459
0.00497971
0.00630288
0.00769555
0.00888467
0.00948178
-0.000694974
-0.000713604
-0.000690161
-0.000654022
-0.000595245
-0.000512384
-0.000400669
-0.000253716
-6.25053e-05
0.000185665
0.000508532
0.000930886
0.00148702
0.00222159
0.00318208
0.00444945
0.00604093
0.00792946
0.00976105
0.0108792
-0.000958501
-0.000981844
-0.000968709
-0.000949421
-0.000914359
-0.000862957
-0.000791535
-0.000695047
-0.000566095
-0.000393755
-0.000161661
0.000154758
0.000592511
0.00120721
0.00207859
0.00326206
0.00496424
0.00733564
0.0100464
0.0119103
-0.00125056
-0.00127909
-0.00127725
-0.00127671
-0.00126846
-0.00125332
-0.00122954
-0.00119463
-0.00114468
-0.00107363
-0.000971942
-0.00082469
-0.000608036
-0.000284687
0.000191782
0.000878
0.00195957
0.00408893
0.00725581
0.0101754
-0.00156474
-0.00159852
-0.00160802
-0.00162691
-0.00164715
-0.0016714
-0.00170056
-0.00173586
-0.00177884
-0.0018316
-0.00189734
-0.00198183
-0.00209628
-0.00226784
-0.00257983
-0.00315871
-0.00384927
-0.0027814
0.000320964
0.00456129
-0.00189512
-0.00193506
-0.0019556
-0.00199387
-0.00204199
-0.00210559
-0.00218894
-0.00229836
-0.00244256
-0.00263531
-0.00289886
-0.00327128
-0.00382089
-0.0046748
-0.00610722
-0.0084478
-0.0118521
-0.0119638
-0.00935696
-0.0037573
-0.00223197
-0.00227485
-0.00230158
-0.00235403
-0.0024265
-0.00252704
-0.00266217
-0.00284205
-0.00308276
-0.00340921
-0.00386245
-0.00451343
-0.00549401
-0.00701743
-0.00955881
-0.0133543
-0.0191864
-0.0202388
-0.0190992
-0.0123438
-0.00258084
-0.00263582
-0.00266789
-0.00273841
-0.00282821
-0.00295546
-0.00312795
-0.00336218
-0.00368028
-0.00411644
-0.00472526
-0.00559604
-0.0069151
-0.00888016
-0.0122843
-0.0165804
-0.0243092
-0.0253931
-0.0257032
-0.018553
-0.00291173
-0.00295551
-0.00297422
-0.00302788
-0.00312187
-0.00326789
-0.00347553
-0.00375788
-0.00413643
-0.00464567
-0.00534476
-0.00631129
-0.00780513
-0.0097671
-0.0136432
-0.0174801
-0.0256266
-0.0259353
-0.027552
-0.0202234
-0.00324413
-0.00335331
-0.0033599
-0.00346341
-0.00354828
-0.00369243
-0.00388595
-0.00415985
-0.00453576
-0.00504847
-0.00575543
-0.00668265
-0.00820219
-0.00990372
-0.0134555
-0.0166735
-0.0228937
-0.0229726
-0.0251742
-0.0171157
-0.00371539
-0.00363816
-0.00358303
-0.0035169
-0.00356692
-0.00369971
-0.00392002
-0.00422883
-0.00463647
-0.00515962
-0.00584908
-0.00666155
-0.00800219
-0.00938418
-0.012033
-0.0141871
-0.018136
-0.0170076
-0.0191055
-0.0097083
-0.00350658
-0.0040559
-0.00400722
-0.00425442
-0.00422843
-0.00432632
-0.00443017
-0.00463286
-0.00493242
-0.00534764
-0.00592315
-0.00658466
-0.0076606
-0.00873182
-0.0107349
-0.0121336
-0.0144011
-0.0126096
-0.0126674
0.00189894
-0.00566134
-0.00446061
-0.00419574
-0.00355576
-0.00348586
-0.0035676
-0.00378967
-0.00410723
-0.00450734
-0.0049751
-0.00554456
-0.006158
-0.00697428
-0.00777035
-0.00884119
-0.009455
-0.0098767
-0.00798281
-0.00539108
0.0207085
-0.00208925
-0.00547642
-0.00482578
-0.00537041
-0.00491237
-0.00494223
-0.00484896
-0.00491154
-0.00507913
-0.00536462
-0.00574983
-0.00624314
-0.00702617
-0.0078609
-0.00938703
-0.0105739
-0.0124715
-0.00769972
0.00111581
0.0501908
-0.0167614
-0.00390932
-0.00293287
-0.00271972
-0.002681
-0.00281038
-0.00311338
-0.00343492
-0.0038803
-0.00432984
-0.00485369
-0.00544987
-0.00616927
-0.006779
-0.00731762
-0.00599526
-0.00210465
0.0165223
0.0543203
0.142741
3.56073e-05
3.38745e-05
8.48023e-05
0.00016939
0.00029502
0.000463873
0.000680189
0.000948915
0.00127541
0.00166491
0.0021216
0.00264743
0.0032401
0.00389039
0.00457863
0.00527035
0.00591583
0.00644049
0.0068029
0.00687529
3.88759e-05
3.66861e-05
8.87769e-05
0.00017204
0.000295008
0.00045992
0.000671156
0.000933749
0.00125323
0.00163528
0.00208489
0.00260524
0.00319511
0.00384748
0.00454604
0.00525744
0.00593114
0.00648705
0.00687706
0.00695572
-1.96696e-05
-2.5044e-05
2.4573e-05
0.000103385
0.000220485
0.000378092
0.000580865
0.000834296
0.00114473
0.00151914
0.0019645
0.00248671
0.00308942
0.00377034
0.00451668
0.00529748
0.00605873
0.00670645
0.00716994
0.0072703
-0.000120589
-0.0001285
-8.28396e-05
-1.07916e-05
9.72203e-05
0.000243449
0.000432924
0.00067175
0.000967364
0.0013286
0.00176546
0.00228842
0.00290659
0.00362472
0.00443982
0.0053272
0.00623123
0.00704238
0.0076411
0.0077991
-0.0002678
-0.000278705
-0.000238733
-0.000175908
-8.03073e-05
5.02812e-05
0.000221181
0.000439123
0.000712728
0.0010529
0.0014731
0.00198945
0.00261941
0.00337766
0.0042784
0.00530847
0.00641801
0.00748448
0.00831776
0.00860773
-0.000457951
-0.000472419
-0.000439804
-0.00038881
-0.000309333
-0.000199364
-5.35465e-05
0.000135139
0.000376144
0.000682082
0.00106969
0.00156091
0.00218379
0.00297117
0.0039444
0.00513159
0.00650709
0.00795587
0.00919254
0.00976207