/*--------------------------------*- C++ -*----------------------------------*\
  =========                 |
  \\      /  F ield         | OpenFOAM: The Open Source CFD Toolbox
   \\    /   O peration     | Website:  https://openfoam.org
    \\  /    A nd           | Version:  9
     \\/     M anipulation  |
\*---------------------------------------------------------------------------*/
FoamFile
{
    format      ascii;
    class       surfaceScalarField;
    location    "9";
    object      phi;
}
// * * * * * * * * * * * * * * * * * * * * * * * * * * * * * * * * * * * * * //

dimensions      [0 3 -1 0 0 0 0];

internalField   nonuniform List<scalar> 
22800
(
-4.81564e-06
5.44782e-06
-6.27553e-07
-1.2933e-05
8.42434e-06
-3.06959e-07
-2.18949e-05
9.17784e-06
-2.15915e-07
-3.12649e-05
9.53237e-06
-1.62401e-07
-4.09443e-05
9.85845e-06
-1.79101e-07
-5.09143e-05
1.02138e-05
-2.43743e-07
-6.1117e-05
1.05591e-05
-3.56413e-07
-7.14144e-05
1.08261e-05
-5.28638e-07
-8.15564e-05
1.09207e-05
-7.78778e-07
-9.11441e-05
1.07185e-05
-1.13073e-06
-9.95982e-05
1.00663e-05
-1.61215e-06
-0.000106132
8.78663e-06
-2.25273e-06
-0.000109751
6.69908e-06
-3.08063e-06
-0.00010928
3.64993e-06
-4.12093e-06
-0.000103504
-4.42767e-07
-5.33263e-06
-9.13923e-05
-5.47982e-06
-6.63207e-06
-7.2533e-05
-1.10004e-05
-7.85886e-06
-4.78413e-05
-1.60017e-05
-8.69004e-06
-2.0287e-05
-1.86896e-05
-8.8646e-06
-1.38227e-05
-6.46434e-06
-7.73444e-06
1.46927e-05
-1.51042e-06
-1.99078e-05
2.19189e-05
-1.32113e-06
-3.3224e-05
2.37384e-05
-1.24435e-06
-4.70172e-05
2.44754e-05
-1.14995e-06
-6.1097e-05
2.50613e-05
-1.12293e-06
-7.53796e-05
2.56373e-05
-1.14099e-06
-8.97402e-05
2.61267e-05
-1.20691e-06
-0.00010396
2.63821e-05
-1.33587e-06
-0.000117689
2.6197e-05
-1.54738e-06
-0.000130392
2.53008e-05
-1.87993e-06
-0.000141302
2.335e-05
-2.37332e-06
-0.000149395
1.99487e-05
-3.06877e-06
-0.000153434
1.47393e-05
-4.00116e-06
-0.000151977
7.39215e-06
-5.1995e-06
-0.000143479
-2.23816e-06
-6.70304e-06
-0.000126494
-1.41265e-05
-8.33766e-06
-0.000100477
-2.71004e-05
-9.91741e-06
-6.64944e-05
-3.89615e-05
-1.10228e-05
-2.85973e-05
-4.53306e-05
-1.12562e-05
-3.44293e-05
-7.99072e-06
-8.32363e-06
2.49024e-05
-1.88608e-06
-2.14444e-05
3.68001e-05
-1.76049e-06
-3.57731e-05
3.9756e-05
-1.68886e-06
-5.05855e-05
4.08605e-05
-1.57268e-06
-6.56895e-05
4.16854e-05
-1.52016e-06
-8.10128e-05
4.24709e-05
-1.51023e-06
-9.645e-05
4.31124e-05
-1.54847e-06
-0.000111809
4.33955e-05
-1.65413e-06
-0.000126769
4.30131e-05
-1.85627e-06
-0.000140832
4.15536e-05
-2.18963e-06
-0.000153262
3.84966e-05
-2.71716e-06
-0.000163044
3.32248e-05
-3.49396e-06
-0.000168802
2.50841e-05
-4.58693e-06
-0.000168836
1.34831e-05
-6.05659e-06
-0.000161216
-1.92058e-06
-7.93757e-06
-0.000144028
-2.12088e-05
-1.01055e-05
-0.000116047
-4.27616e-05
-1.23203e-05
-7.78424e-05
-6.31247e-05
-1.40414e-05
-3.40261e-05
-7.45304e-05
-1.46164e-05
-5.77423e-05
-1.07131e-05
-8.25041e-06
3.53259e-05
-2.17316e-06
-2.14253e-05
5.20891e-05
-2.11411e-06
-3.58478e-05
5.62306e-05
-2.05209e-06
-5.08037e-05
5.77415e-05
-1.92512e-06
-6.61307e-05
5.88719e-05
-1.85948e-06
-8.18036e-05
5.99798e-05
-1.83603e-06
-9.77789e-05
6.09515e-05
-1.86376e-06
-0.000113945
6.15278e-05
-1.96637e-06
-0.000130075
6.1324e-05
-2.18035e-06
-0.000145773
5.98072e-05
-2.55613e-06
-0.000160392
5.62733e-05
-3.15788e-06
-0.000172929
4.98475e-05
-4.08579e-06
-0.000181936
3.95349e-05
-5.44326e-06
-0.000185443
2.43401e-05
-7.3504e-06
-0.000181039
3.59862e-06
-9.92336e-06
-0.00016576
-2.34342e-05
-1.30535e-05
-0.000137112
-5.49129e-05
-1.64966e-05
-9.44404e-05
-8.62342e-05
-1.95619e-05
-4.27385e-05
-0.000105253
-2.09794e-05
-8.41382e-05
-1.63426e-05
-7.94127e-06
4.56571e-05
-2.38991e-06
-2.08906e-05
6.74257e-05
-2.3873e-06
-3.51436e-05
7.28193e-05
-2.33572e-06
-5.00018e-05
7.48054e-05
-2.20579e-06
-6.53446e-05
7.63542e-05
-2.13943e-06
-8.12139e-05
7.79688e-05
-2.11972e-06
-9.76572e-05
7.95542e-05
-2.15948e-06
-0.000114678
8.08374e-05
-2.28831e-06
-0.000132195
8.13927e-05
-2.55225e-06
-0.000149972
8.06023e-05
-3.01835e-06
-0.000167526
7.76089e-05
-3.78168e-06
-0.000183978
7.12756e-05
-4.97536e-06
-0.000197852
6.01835e-05
-6.77523e-06
-0.00020688
4.2749e-05
-9.3812e-06
-0.000207804
1.7509e-05
-1.2986e-05
-0.000196644
-1.67791e-05
-1.78145e-05
-0.000168668
-5.93547e-05
-2.35346e-05
-0.000120886
-0.000104666
-2.93507e-05
-5.79654e-05
-0.000135184
-3.29887e-05
-0.000114194
-2.79092e-05
-7.50327e-06
5.5752e-05
-2.59159e-06
-2.00849e-05
8.26499e-05
-2.64255e-06
-3.40321e-05
8.93682e-05
-2.6017e-06
-4.86547e-05
9.18994e-05
-2.47138e-06
-6.3876e-05
9.39844e-05
-2.40881e-06
-7.98132e-05
9.63062e-05
-2.40028e-06
-9.66235e-05
9.8828e-05
-2.46346e-06
-0.000114459
0.000101307
-2.63485e-06
-0.000133426
0.000103332
-2.97173e-06
-0.000153525
0.000104263
-3.56137e-06
-0.000174537
0.000103156
-4.5346e-06
-0.000195844
9.86679e-05
-6.08553e-06
-0.000216135
8.89677e-05
-8.49255e-06
-0.000232979
7.17145e-05
-1.2122e-05
-0.000242404
4.43225e-05
-1.73884e-05
-0.000239027
4.87097e-06
-2.50274e-05
-0.000214764
-4.87475e-05
-3.487e-05
-0.000162759
-0.000110324
-4.63465e-05
-8.52577e-05
-0.000157087
-5.55988e-05
-0.00014672
-5.27325e-05
-6.9505e-06
6.55144e-05
-2.81195e-06
-1.90381e-05
9.76596e-05
-2.92204e-06
-3.25405e-05
0.000105762
-2.89109e-06
-4.67632e-05
0.00010888
-2.75753e-06
-6.16673e-05
0.000111584
-2.69524e-06
-7.74447e-05
0.000114779
-2.69492e-06
-9.43692e-05
0.000118532
-2.77979e-06
-0.000112763
0.000122695
-2.99436e-06
-0.000132967
0.000126946
-3.40947e-06
-0.000155293
0.000130724
-4.13578e-06
-0.000179915
0.000133126
-5.34812e-06
-0.000206675
0.000132751
-7.3227e-06
-0.000234732
0.000127514
-1.04894e-05
-0.000261988
0.000114459
-1.54892e-05
-0.000284134
8.97147e-05
-2.32455e-05
-0.00029341
4.91033e-05
-3.4957e-05
-0.000279431
-1.02816e-05
-5.2445e-05
-0.000228069
-8.64853e-05
-7.52004e-05
-0.000133585
-0.00015367
-9.79014e-05
-0.000173284
-0.00010702
-6.28467e-06
7.48698e-05
-3.07071e-06
-1.77505e-05
0.000112376
-3.2505e-06
-3.06478e-05
0.000121885
-3.22618e-06
-4.42584e-05
0.000125571
-3.08107e-06
-5.85662e-05
0.0001289
-3.00813e-06
-7.38274e-05
0.000133044
-3.00374e-06
-9.04251e-05
0.000138227
-3.09706e-06
-0.000108849
0.00014446
-3.34074e-06
-0.000129698
0.000151614
-3.8196e-06
-0.000153658
0.000159354
-4.67076e-06
-0.00018143
0.000167019
-6.11965e-06
-0.000213552
0.000173415
-8.54257e-06
-0.000250019
0.000176554
-1.25727e-05
-0.00028958
0.000173277
-1.92572e-05
-0.000328563
0.000158947
-3.02487e-05
-0.000358722
0.000127447
-4.81846e-05
-0.000364429
7.27924e-05
-7.73675e-05
-0.000325934
-5.16294e-06
-0.000119817
-0.000215507
-9.76082e-05
-0.000166489
-0.000191491
-0.0001973
-5.52349e-06
8.37809e-05
-3.38754e-06
-1.62548e-05
0.000126759
-3.6518e-06
-2.83776e-05
0.000137635
-3.62719e-06
-4.1126e-05
0.000141776
-3.45595e-06
-5.44808e-05
0.000145608
-3.35343e-06
-6.87406e-05
0.000150626
-3.32294e-06
-8.43713e-05
0.000157257
-3.39921e-06
-0.000102001
0.000165731
-3.64143e-06
-0.00012245
0.000176208
-4.1455e-06
-0.000146766
0.00018874
-5.0691e-06
-0.000176227
0.00020316
-6.68099e-06
-0.000212261
0.000218901
-9.4523e-06
-0.000256167
0.00023469
-1.42307e-05
-0.000308393
0.00024804
-2.25366e-05
-0.000367241
0.000254825
-3.70293e-05
-0.000425904
0.000248385
-6.22757e-05
-0.000466018
0.000217345
-0.000104439
-0.000449573
0.000136986
-0.000158593
-0.000323867
-2.91937e-05
-0.000194121
-0.000289103
-0.000226255
-4.71633e-06
9.22895e-05
-3.79234e-06
-1.46522e-05
0.000140861
-4.16566e-06
-2.58488e-05
0.000152966
-4.13381e-06
-3.74754e-05
0.00015732
-3.91728e-06
-4.94643e-05
0.000161353
-3.75627e-06
-6.21366e-05
0.000166964
-3.66512e-06
-7.59942e-05
0.0001748
-3.68501e-06
-9.17379e-05
0.000185355
-3.8802e-06
-0.000110331
0.000199155
-4.35391e-06
-0.000133085
0.000216768
-5.27417e-06
-0.000161763
0.000238768
-6.93069e-06
-0.000198623
0.000265601
-9.83916e-06
-0.000246405
0.000297434
-1.49618e-05
-0.000307723
0.000333385
-2.40275e-05
-0.000383872
0.000370752
-3.97781e-05
-0.000469377
0.000399071
-6.518e-05
-0.000546111
0.00039063
-9.65506e-05
-0.000565276
0.000249426
-9.32752e-05
-0.000447921
-0.000140443
-6.10539e-06
-0.00067624
-6.07843e-05
-3.93681e-06
0.000100545
-4.31843e-06
-1.3112e-05
0.000154828
-4.79257e-06
-2.32876e-05
0.000167856
-4.71505e-06
-3.35759e-05
0.000172015
-4.40737e-06
-4.37834e-05
0.000175715
-4.15476e-06
-5.42267e-05
0.000181387
-3.97956e-06
-6.53928e-05
0.000189876
-3.91002e-06
-7.79362e-05
0.000201898
-4.00021e-06
-9.27945e-05
0.000218366
-4.35259e-06
-0.00011131
0.0002404
-5.11544e-06
-0.000135446
0.000269443
-6.53846e-06
-0.000167897
0.000307086
-9.03431e-06
-0.000212674
0.000355569
-1.33573e-05
-0.000274414
0.000415458
-2.03329e-05
-0.000360231
0.000485535
-2.89675e-05
-0.000473677
0.000543224
-3.07072e-05
-0.000622004
0.000527869
1.10871e-05
-0.000753363
0.000201512
0.000179272
-0.000589116
-0.000697213
0.000392523
-0.00139514
0.000129786
-3.46538e-06
0.000109138
-5.1283e-06
-1.21308e-05
0.000169363
-5.86901e-06
-2.12527e-05
0.000182756
-5.77767e-06
-2.99181e-05
0.000186074
-5.39371e-06
-3.78931e-05
0.000188641
-4.95052e-06
-4.55177e-05
0.000193576
-4.56531e-06
-5.31241e-05
0.000201766
-4.28361e-06
-6.12535e-05
0.000214216
-4.18885e-06
-7.06613e-05
0.000232128
-4.35436e-06
-8.24135e-05
0.000257047
-4.89481e-06
-9.83434e-05
0.000291368
-5.99487e-06
-0.000120792
0.000337287
-7.7521e-06
-0.000155163
0.000400124
-1.0185e-05
-0.000207712
0.000479175
-1.11673e-05
-0.000301578
0.000581526
-2.12469e-06
-0.000471629
0.000659057
5.42186e-05
-0.000770695
0.000598105
0.00022883
-0.000976484
-0.000120291
0.000527591
-0.000641005
-0.00162122
0.000588529
-0.00212663
9.04875e-05
-2.81924e-06
0.000118041
-6.08333e-06
-1.12826e-05
0.000184554
-6.72825e-06
-1.95628e-05
0.00019747
-6.43438e-06
-2.71459e-05
0.000199434
-5.77681e-06
-3.30076e-05
0.00019964
-5.13727e-06
-3.7476e-05
0.000202651
-4.60606e-06
-4.06859e-05
0.000209155
-4.17925e-06
-4.29786e-05
0.000220415
-3.90572e-06
-4.47555e-05
0.000237752
-3.84648e-06
-4.64601e-05
0.000262763
-4.01168e-06
-4.93928e-05
0.000298764
-4.46324e-06
-5.48207e-05
0.000347247
-4.53235e-06
-6.97021e-05
0.000418438
-3.43206e-06
-0.000103378
0.000507296
5.55554e-06
-0.000205463
0.000640482
4.31293e-05
-0.000436531
0.000722991
0.000167133
-0.000843112
0.000576497
0.00042819
-0.000970827
-0.000634075
0.0006415
-0.00064981
-0.00228892
0.000346685
-0.00273858
-3.78605e-05
-5.36913e-06
0.000131669
-8.25867e-06
-1.49898e-05
0.000203774
-9.59866e-06
-2.23989e-05
0.000214132
-9.25309e-06
-2.67653e-05
0.000212362
-8.56092e-06
-2.86263e-05
0.000208986
-7.48517e-06
-2.87126e-05
0.000209242
-6.50484e-06
-2.70768e-05
0.000213085
-5.56613e-06
-2.35663e-05
0.000221726
-4.82135e-06
-1.7838e-05
0.000236382
-4.35843e-06
-9.31627e-06
0.000258258
-4.01715e-06
2.61195e-06
0.000291001
-4.16603e-06
1.62291e-05
0.00033662
-2.99062e-06
2.96998e-05
0.000404957
9.97584e-09
2.80803e-05
0.000490873
1.80428e-05
-3.4548e-05
0.000628069
7.50414e-05
-0.000248216
0.000705452
0.000231207
-0.000614909
0.000461161
0.000482029
-0.000744482
-0.000992768
0.000488266
-0.000663294
-0.00247869
0.00010858
-0.00328444
-0.000117439
-1.71474e-06
0.000144523
-1.11393e-05
-1.27586e-05
0.000226543
-1.17251e-05
-2.09955e-05
0.000232984
-1.06147e-05
-2.81261e-05
0.000228392
-8.89991e-06
-2.99793e-05
0.00021815
-7.31093e-06
-2.79387e-05
0.000213276
-6.07487e-06
-2.15708e-05
0.0002117
-4.98296e-06
-1.10821e-05
0.000215332
-4.09494e-06
4.08505e-06
0.000224716
-3.50152e-06
2.45802e-05
0.000240555
-2.79168e-06
5.25751e-05
0.00026563
-2.62365e-06
9.03778e-05
0.000300039
-1.2216e-06
0.000136893
0.00035463
3.81234e-06
0.000189154
0.000418851
1.97594e-05
0.000206229
0.000526405
8.45892e-05
9.36858e-05
0.000597688
0.000220307
-0.000174644
0.000310437
0.000419053
-0.000447727
-0.0010362
0.000316518
-0.000536454
-0.00251595
0.000125989
-0.00360043
-0.000220464
-2.89748e-05
0.000188685
-1.51875e-05
-4.05193e-05
0.000253898
-1.58104e-05
-4.37612e-05
0.00025213
-1.59045e-05
-3.87611e-05
0.000238994
-1.56019e-05
-3.0583e-05
0.0002233
-1.33276e-05
-2.08514e-05
0.000214649
-1.11043e-05
-8.99276e-06
0.00020876
-8.91797e-06
6.27355e-06
0.000207055
-6.98903e-06
2.64623e-05
0.000210183
-5.65493e-06
5.43292e-05
0.000217149
-4.4613e-06
9.26364e-05
0.000231488
-4.16553e-06
0.000146468
0.000250024
-3.81609e-06
0.000216782
0.000283575
7.40788e-07
0.000308533
0.000315343
1.17573e-05
0.000400925
0.000372205
6.18073e-05
0.000426975
0.000404333
0.000167305
0.00026232
0.000166822
0.00030827
-0.000116144
-0.000879613
0.000221875
-0.000395725
-0.0023965
0.00016013
-0.00374227
-0.000253888
1.74283e-05
0.000209334
-3.80771e-05
-1.67254e-05
0.000325008
-3.69568e-05
-3.80472e-05
0.000297509
-2.40571e-05
-5.03467e-05
0.00026769
-1.63965e-05
-4.971e-05
0.00023494
-1.22774e-05
-4.06681e-05
0.000215442
-9.83436e-06
-2.46438e-05
0.00020039
-7.65493e-06
-2.42308e-06
0.000190503
-5.66895e-06
2.60638e-05
0.000186146
-4.45031e-06
6.33303e-05
0.000183301
-3.41878e-06
0.000112394
0.000186295
-3.86969e-06
0.000179028
0.000188508
-5.11829e-06
0.000265874
0.00020089
-4.16078e-06
0.000377684
0.000202235
1.29877e-06
0.000505579
0.000219179
2.5132e-05
0.000621291
0.000193085
9.55363e-05
0.000527918
7.19521e-05
0.000188242
0.000106804
-0.000631575
0.000173076
-0.0002843
-0.00214183
0.00013643
-0.0037324
-0.000294172
-9.30047e-05
0.000325235
-2.28968e-05
-7.87805e-05
0.000335042
-2.42583e-05
-6.68445e-05
0.000314498
-2.89244e-05
-6.34177e-05
0.000301417
-3.71537e-05
-4.81629e-05
0.000251815
-3.21293e-05
-2.9904e-05
0.000222848
-2.56651e-05
-8.05098e-06
0.000197837
-1.92996e-05
1.9141e-05
0.000176554
-1.32434e-05
5.12972e-05
0.000163855
-9.86549e-06
9.25888e-05
0.000148793
-6.78273e-06
0.000142677
0.0001439
-7.69358e-06
0.00020719
0.000132471
-8.47622e-06
0.00028582
0.000136324
-1.40643e-05
0.000373337
0.000123188
-8.47003e-06
0.000478225
0.00012796
-1.36696e-05
0.000554501
6.95477e-05
4.7261e-05
0.000589795
-4.0037e-05
7.66958e-05
0.000378907
-0.000502393
8.17066e-05
1.12212e-05
-0.00189863
0.000124484
-0.00336464
-0.00035653
-0.000378901
0.000851723
-0.000147587
-0.000340301
0.000374485
-7.80422e-05
-0.000273714
0.000303563
-5.56531e-05
-0.000156288
0.000228956
-4.49645e-05
-4.17806e-05
0.000173791
-3.64838e-05
7.10275e-05
0.00013425
-2.421e-05
0.000175673
0.000111101
-1.79091e-05
0.000272786
8.93119e-05
-9.87084e-06
0.000364292
7.94207e-05
-7.07114e-06
0.000450945
6.53546e-05
-3.21549e-06
0.000538589
6.14378e-05
-5.18188e-06
0.00062492
5.14258e-05
-5.2856e-06
0.000729929
5.00305e-05
-1.87158e-05
0.000824065
3.92249e-05
-1.01733e-05
0.000965779
2.35047e-05
-3.72583e-05
0.00108003
-2.17849e-05
-2.29223e-05
0.00114648
-0.000155402
4.89214e-05
0.0011229
-0.000497375
1.85591e-05
0.000505475
-0.00142137
0.000140167
-0.00245177
-0.000407402
0.00096055
-0.000108827
0.00144116
-0.000106128
0.00185534
-0.00011061
0.00218729
-0.000102994
0.00245608
-9.5005e-05
0.00267775
-8.74165e-05
0.00286611
-7.72584e-05
0.00303289
-7.74717e-05
0.00317484
-6.25316e-05
0.00330722
-6.70223e-05
0.00342043
-5.17709e-05
0.00353603
-6.41767e-05
0.00362509
-3.90288e-05
0.00373448
-7.01686e-05
0.00378509
-2.71041e-05
0.00384063
-7.73238e-05
0.00369433
-9.09712e-06
0.00328137
-8.44183e-05
0.00186234
-2.34396e-06
-0.000589423
-7.28617e-06
7.70403e-06
-1.04541e-06
-1.96282e-05
1.29593e-05
-9.24204e-07
-3.324e-05
1.42509e-05
-8.55113e-07
-4.72317e-05
1.46427e-05
-8.13276e-07
-6.14322e-05
1.48808e-05
-8.59437e-07
-7.57865e-05
1.50914e-05
-9.8086e-07
-9.01774e-05
1.52203e-05
-1.18581e-06
-0.000104379
1.51681e-05
-1.49546e-06
-0.000118018
1.4801e-05
-1.94014e-06
-0.000130539
1.39482e-05
-2.55788e-06
-0.000141164
1.24038e-05
-3.39085e-06
-0.000148869
9.93309e-06
-4.48142e-06
-0.000152392
6.30515e-06
-5.86293e-06
-0.000150301
1.33605e-06
-7.54761e-06
-0.000141094
-5.05279e-06
-9.48725e-06
-0.00012355
-1.26216e-05
-1.15544e-05
-9.72288e-05
-2.06625e-05
-1.35172e-05
-6.33716e-05
-2.75821e-05
-1.49651e-05
-2.64366e-05
-3.03324e-05
-1.54672e-05
-2.06802e-05
-1.22208e-05
-1.29853e-05
2.1154e-05
-1.975e-06
-3.31086e-05
3.383e-05
-2.06855e-06
-5.50027e-05
3.69132e-05
-2.01253e-06
-7.72555e-05
3.76714e-05
-1.92591e-06
-9.95002e-05
3.79328e-05
-1.93021e-06
-0.000121533
3.8001e-05
-2.01775e-06
-0.000143091
3.77751e-05
-2.20358e-06
-0.000163786
3.70444e-05
-2.51759e-06
-0.00018305
3.55191e-05
-3.00128e-06
-0.000200098
3.28242e-05
-3.70771e-06
-0.000213877
2.85054e-05
-4.69662e-06
-0.000223022
2.20384e-05
-6.02851e-06
-0.00022596
1.29946e-05
-7.75328e-06
-0.000220965
1.05108e-06
-9.90947e-06
-0.000206029
-1.42515e-05
-1.24401e-05
-0.000179642
-3.21652e-05
-1.51807e-05
-0.000141238
-5.11501e-05
-1.78337e-05
-9.23851e-05
-6.76172e-05
-1.98409e-05
-3.93001e-05
-7.41681e-05
-2.05054e-05
-5.21128e-05
-1.58582e-05
-1.45274e-05
3.62015e-05
-2.40625e-06
-3.69163e-05
5.70662e-05
-2.60789e-06
-6.11915e-05
6.20576e-05
-2.55805e-06
-8.57749e-05
6.31272e-05
-2.445e-06
-0.000110273
6.33308e-05
-2.42027e-06
-0.000134476
6.31737e-05
-2.47932e-06
-0.000158128
6.25206e-05
-2.6421e-06
-0.000180856
6.10629e-05
-2.94527e-06
-0.000202119
5.83664e-05
-3.44028e-06
-0.000221152
5.38615e-05
-4.19358e-06
-0.000236919
4.68411e-05
-5.28586e-06
-0.00024807
3.65005e-05
-6.80562e-06
-0.000252838
2.20204e-05
-8.84385e-06
-0.000249125
2.74752e-06
-1.14662e-05
-0.000234578
-2.20627e-05
-1.46734e-05
-0.000206958
-5.15871e-05
-1.83041e-05
-0.000164868
-8.35579e-05
-2.20019e-05
-0.000109278
-0.000112219
-2.50299e-05
-4.73068e-05
-0.000124488
-2.62677e-05
-8.96063e-05
-2.05265e-05
-1.4778e-05
5.15703e-05
-2.76399e-06
-3.77254e-05
8.0969e-05
-3.06945e-06
-6.26314e-05
8.79422e-05
-3.03059e-06
-8.78945e-05
8.93671e-05
-2.90192e-06
-0.000113158
8.95946e-05
-2.85937e-06
-0.000138275
8.93568e-05
-2.90225e-06
-0.000163068
8.85056e-05
-3.05638e-06
-0.000187264
8.66596e-05
-3.36648e-06
-0.000210444
8.32625e-05
-3.8967e-06
-0.000231967
7.75619e-05
-4.73346e-06
-0.000250884
6.85881e-05
-5.98779e-06
-0.000265839
5.51649e-05
-7.79573e-06
-0.000274954
3.5999e-05
-1.03065e-05
-0.000275795
9.88859e-06
-1.3651e-05
-0.000265238
-2.45026e-05
-1.80398e-05
-0.000239674
-6.6962e-05
-2.32431e-05
-0.000196018
-0.000114795
-2.89161e-05
-0.000133553
-0.000160195
-3.40507e-05
-6.00508e-05
-0.000182402
-3.65676e-05
-0.000136768
-2.92315e-05
-1.4642e-05
6.68939e-05
-3.07142e-06
-3.76888e-05
0.000105102
-3.47409e-06
-6.27978e-05
0.000114163
-3.44796e-06
-8.83643e-05
0.000116039
-3.31097e-06
-0.000114093
0.000116446
-3.26199e-06
-0.000139933
0.000116382
-3.30459e-06
-0.000165834
0.000115719
-3.47148e-06
-0.000191682
0.000114037
-3.81786e-06
-0.000217244
0.000110697
-4.42467e-06
-0.000242085
0.00010479
-5.40557e-06
-0.000265451
9.50881e-05
-6.91604e-06
-0.000286102
8.00036e-05
-9.16253e-06
-0.000302083
5.76057e-05
-1.2401e-05
-0.000310454
2.58135e-05
-1.69352e-05
-0.000307292
-1.76162e-05
-2.30348e-05
-0.000287094
-7.41267e-05
-3.08472e-05
-0.00024397
-0.000141443
-4.00103e-05
-0.000174103
-0.000210186
-4.9226e-05
-8.40785e-05
-0.000250685
-5.47301e-05
-0.000203371
-4.53848e-05
-1.43699e-05
8.20534e-05
-3.38124e-06
-3.73785e-05
0.000129352
-3.88325e-06
-6.25701e-05
0.000140623
-3.87012e-06
-8.83275e-05
0.00014305
-3.72562e-06
-0.000114425
0.000143807
-3.67232e-06
-0.000140925
0.000144201
-3.71907e-06
-0.000167939
0.000144175
-3.90637e-06
-0.000195561
0.000143326
-4.30114e-06
-0.000223821
0.000140988
-5.00378e-06
-0.000252593
0.000136163
-6.16156e-06
-0.000281464
0.000127412
-7.98759e-06
-0.000309507
0.000112747
-1.07861e-05
-0.000334934
8.95176e-05
-1.49776e-05
-0.000354539
5.44158e-05
-2.11189e-05
-0.000363798
4.09575e-06
-2.98415e-05
-0.000354793
-6.642e-05
-4.17389e-05
-0.000317823
-0.000156366
-5.69174e-05
-0.000243852
-0.000256597
-7.39065e-05
-0.000133051
-0.000330981
-8.61038e-05
-0.000313521
-7.56337e-05
-1.40066e-05
9.6979e-05
-3.73089e-06
-3.68947e-05
0.000153663
-4.34505e-06
-6.20768e-05
0.000167257
-4.34292e-06
-8.79041e-05
0.000170305
-4.18444e-06
-0.000114216
0.000171542
-4.11839e-06
-0.000141199
0.000172648
-4.15978e-06
-0.000169145
0.000173699
-4.35712e-06
-0.000198406
0.000174382
-4.78933e-06
-0.000229349
0.0001741
-5.57767e-06
-0.000262288
0.000171873
-6.90656e-06
-0.000297351
0.000166184
-9.05746e-06
-0.000334232
0.000154764
-1.24586e-05
-0.000371785
0.000134332
-1.77513e-05
-0.000407359
0.000100348
-2.58477e-05
-0.00043563
4.70695e-05
-3.7948e-05
-0.000448309
-3.25766e-05
-5.61219e-05
-0.000431099
-0.000144624
-8.13969e-05
-0.000366921
-0.000283622
-0.000112353
-0.000233605
-0.000423961
-0.000138237
-0.000523368
-0.000130779
-1.35573e-05
0.000111614
-4.14881e-06
-3.62448e-05
0.000177997
-4.89687e-06
-6.12989e-05
0.000193985
-4.90014e-06
-8.70093e-05
0.000197647
-4.71349e-06
-0.000113267
0.000199407
-4.61564e-06
-0.000140377
0.000201383
-4.6285e-06
-0.000168821
0.000203854
-4.80779e-06
-0.00019923
0.000206692
-5.24253e-06
-0.000232376
0.000209498
-6.0723e-06
-0.000269145
0.000211489
-7.51748e-06
-0.000310444
0.000211295
-9.93102e-06
-0.000356993
0.000206656
-1.38855e-05
-0.000408917
0.000193996
-2.03129e-05
-0.000465036
0.00016791
-3.07004e-05
-0.000521752
0.000120862
-4.73251e-05
-0.000572541
4.3396e-05
-7.33678e-05
-0.000601539
-7.95971e-05
-0.000113396
-0.000575178
-0.000266128
-0.000163673
-0.000415973
-0.000548034
-0.000201621
-0.000945436
-0.000191205
-1.30423e-05
0.000125938
-4.66843e-06
-3.54637e-05
0.000202347
-5.58051e-06
-6.02508e-05
0.000220724
-5.57844e-06
-8.55937e-05
0.000224875
-5.34052e-06
-0.000111406
0.000227046
-5.18048e-06
-0.000138093
0.000229875
-5.12752e-06
-0.000166311
0.000233915
-5.24226e-06
-0.000196957
0.000239316
-5.6187e-06
-0.000231214
0.000246015
-6.4056e-06
-0.000270596
0.000253644
-7.84358e-06
-0.00031697
0.000261323
-1.03342e-05
-0.000372521
0.000267321
-1.4566e-05
-0.000439568
0.000268565
-2.17529e-05
-0.000520216
0.000260055
-3.40332e-05
-0.000615882
0.000234433
-5.49353e-05
-0.00072395
0.000178665
-8.9477e-05
-0.000825613
5.71038e-05
-0.000139476
-0.000838023
-0.000229378
-0.000182933
-0.000596192
-0.000814786
-0.0001692
-0.00162245
-0.000145428
-1.2527e-05
0.000140012
-5.34016e-06
-3.46771e-05
0.000226793
-6.46164e-06
-5.90651e-05
0.000247419
-6.44123e-06
-8.37477e-05
0.000251761
-6.12093e-06
-0.000108618
0.000254014
-5.85459e-06
-0.000134158
0.000257432
-5.68182e-06
-0.000161157
0.000262895
-5.66689e-06
-0.000190728
0.00027091
-5.90271e-06
-0.000224412
0.00028188
-6.53434e-06
-0.000264317
0.00029607
-7.79527e-06
-0.000313292
0.000313453
-1.00851e-05
-0.000375126
0.000333466
-1.41507e-05
-0.00045482
0.000354645
-2.13481e-05
-0.000558766
0.000374065
-3.40917e-05
-0.000693905
0.000385567
-5.5773e-05
-0.000856947
0.000363398
-8.68701e-05
-0.00100333
0.000213189
-0.000106253
-0.000988253
-0.000296431
-4.13002e-05
-0.000606987
-0.00132547
0.000123317
-0.00231486
2.46357e-05
-1.20742e-05
0.000153995
-6.22641e-06
-3.40551e-05
0.000251566
-7.58501e-06
-5.7984e-05
0.000274135
-7.50192e-06
-8.1773e-05
0.000278185
-7.04208e-06
-0.000105168
0.000279872
-6.61787e-06
-0.000128694
0.000283253
-6.27341e-06
-0.000153216
0.000289568
-6.0619e-06
-0.000179948
0.000299699
-6.0566e-06
-0.000210596
0.000314554
-6.3787e-06
-0.000247627
0.000335185
-7.20021e-06
-0.000294587
0.000362719
-8.84462e-06
-0.000356558
0.000398288
-1.18848e-05
-0.000440938
0.000443045
-1.73767e-05
-0.000556805
0.000496305
-2.67056e-05
-0.000711384
0.000549035
-3.78565e-05
-0.000890947
0.000542573
-3.03195e-05
-0.00104607
0.000312582
6.6813e-05
-0.00101233
-0.000487616
0.000336726
-0.000560467
-0.00192779
0.000542969
-0.00282454
7.90008e-05
-1.21908e-05
0.000168583
-7.52599e-06
-3.44049e-05
0.000277207
-9.29565e-06
-5.78079e-05
0.000300924
-9.16367e-06
-8.01874e-05
0.000303717
-8.54637e-06
-0.000101386
0.000303979
-7.85917e-06
-0.000122022
0.000306534
-7.21018e-06
-0.000142861
0.000312788
-6.66457e-06
-0.000165062
0.000324016
-6.30544e-06
-0.000190335
0.000341682
-6.20953e-06
-0.000221165
0.000367589
-6.46735e-06
-0.000261265
0.000404093
-7.26865e-06
-0.000315802
0.000453847
-8.77542e-06
-0.000392751
0.000520904
-1.10938e-05
-0.000500129
0.000604117
-1.16017e-05
-0.00064884
0.000690811
4.80944e-06
-0.000825195
0.000682332
9.08151e-05
-0.00100866
0.000373912
0.000350962
-0.000988183
-0.000709781
0.000729283
-0.000535608
-0.00236283
0.000570996
-0.00325509
-1.4577e-05
-1.16088e-05
0.000183302
-9.19324e-06
-3.44399e-05
0.000304469
-1.1159e-05
-5.78255e-05
0.000328661
-1.07855e-05
-7.99634e-05
0.000329871
-9.79332e-06
-9.92704e-05
0.000326927
-8.77786e-06
-0.000116426
0.00032691
-7.82649e-06
-0.000132043
0.000331192
-6.96706e-06
-0.000147228
0.000341525
-6.22946e-06
-0.000163418
0.000359653
-5.62761e-06
-0.000182563
0.000387849
-5.12713e-06
-0.000207825
0.000429536
-4.64492e-06
-0.000243234
0.000488292
-3.56843e-06
-0.000297628
0.000572189
-3.22559e-07
-0.000376535
0.00067537
1.32099e-05
-0.000504122
0.000795811
6.57161e-05
-0.000661071
0.000773122
0.000233293
-0.000864034
0.000424881
0.000580184
-0.000788649
-0.000919919
0.000776252
-0.000428027
-0.00253054
0.000153772
-0.00367096
-5.00092e-05
-1.68041e-05
0.000204025
-1.2178e-05
-4.22825e-05
0.000335261
-1.49123e-05
-6.4893e-05
0.000356446
-1.44279e-05
-8.24551e-05
0.000352157
-1.3284e-05
-9.65882e-05
0.000345368
-1.1793e-05
-0.00010833
0.00034244
-1.02934e-05
-0.00011808
0.000344174
-8.79776e-06
-0.000126222
0.000352262
-7.4168e-06
-0.000133326
0.000368567
-6.16803e-06
-0.000140113
0.000395537
-4.91812e-06
-0.000148552
0.000437403
-3.59414e-06
-0.000159629
0.000496994
-6.15267e-07
-0.000180922
0.000587379
6.11327e-06
-0.000207061
0.000688596
3.0955e-05
-0.000270196
0.000827736
0.000106252
-0.000357962
0.000789349
0.000302745
-0.000491609
0.000433337
0.000607221
-0.000481568
-0.000988851
0.000547157
-0.000300089
-0.0025229
-8.05339e-05
-0.00394474
-0.000143755
-8.23082e-06
0.000217682
-1.65651e-05
-3.658e-05
0.000371332
-1.94472e-05
-6.35775e-05
0.000390823
-1.79941e-05
-8.8018e-05
0.000383275
-1.55782e-05
-0.000103508
0.000366767
-1.32204e-05
-0.000112639
0.000356622
-1.11256e-05
-0.000115488
0.000351221
-9.18138e-06
-0.000113391
0.000353459
-7.38804e-06
-0.000106805
0.000364229
-5.7495e-06
-9.55382e-05
0.000385405
-3.92651e-06
-7.96207e-05
0.000420953
-2.09094e-06
-5.7206e-05
0.000471295
2.0629e-06
-2.79731e-05
0.00055188
1.00776e-05
-1.23633e-07
0.000643687
3.68195e-05
4.77806e-05
0.00075404
0.000110381
2.83531e-05
0.000745603
0.000283481
-5.59746e-06
0.000386017
0.000500323
-0.000174831
-0.000849722
0.000346623
-0.000158513
-0.00241475
1.51486e-06
-0.00409195
-0.00023176
-5.16686e-05
0.000275194
-2.10309e-05
-7.88828e-05
0.00040656
-2.38239e-05
-9.56623e-05
0.000415474
-2.37761e-05
-0.00010148
0.000396172
-2.2681e-05
-0.000103524
0.00037541
-1.99272e-05
-0.000103039
0.000362003
-1.69698e-05
-9.9161e-05
0.000352351
-1.39262e-05
-9.06234e-05
0.000348996
-1.10631e-05
-7.61718e-05
0.000352693
-8.57016e-06
-5.34386e-05
0.000364282
-6.07154e-06
-2.05614e-05
0.000388148
-4.23764e-06
2.40521e-05
0.000423365
-4.99665e-07
8.85384e-05
0.000481397
6.73792e-06
0.000170132
0.000547557
2.62937e-05
0.000282317
0.000619617
8.40442e-05
0.000364475
0.000615687
0.000215063
0.000401567
0.000299657
0.000357539
0.000162927
-0.000611929
0.000222721
1.71793e-05
-0.00216584
5.69726e-05
-0.00412358
-0.000205087
6.98718e-06
0.000274225
-4.40956e-05
-6.67529e-05
0.000490784
-4.74402e-05
-0.000113605
0.000474146
-3.58779e-05
-0.000137247
0.000431216
-2.7798e-05
-0.00014203
0.000390455
-2.25386e-05
-0.000137049
0.000365822
-1.86343e-05
-0.000123137
0.000345835
-1.50499e-05
-0.000102448
0.00033431
-1.16728e-05
-7.37017e-05
0.000328427
-8.93014e-06
-3.44857e-05
0.000327923
-6.27638e-06
1.94465e-05
0.000335438
-5.09292e-06
9.04341e-05
0.000350366
-3.10702e-06
0.000188977
0.000378337
3.5636e-07
0.000313895
0.000411467
1.24705e-05
0.000473788
0.00044531
3.95463e-05
0.000631991
0.000429015
0.000124006
0.000690833
0.000219447
0.000209609
0.000399475
-0.000302673
0.000155177
0.000179214
-0.00186458
5.54249e-05
-0.00400982
-0.000228713
-4.01571e-05
0.000324357
-3.28716e-05
-1.17629e-05
0.000477611
-3.94797e-05
-2.46086e-05
0.000500656
-4.25886e-05
-6.96153e-05
0.000485435
-4.63663e-05
-9.30339e-05
0.000422953
-4.12089e-05
-0.000107481
0.000388978
-3.43745e-05
-0.000107473
0.000353632
-2.71053e-05
-9.3106e-05
0.000326856
-2.01569e-05
-6.66363e-05
0.000307304
-1.52131e-05
-2.44949e-05
0.000289496
-1.0497e-05
3.32372e-05
0.00028
-9.98752e-06
0.000108648
0.000274337
-7.85777e-06
0.000205673
0.000278398
-1.11509e-05
0.000317744
0.000291908
-9.81166e-07
0.000457416
0.000295684
-3.71492e-06
0.000568107
0.000297204
6.83808e-05
0.000685409
9.24945e-05
8.63471e-05
0.000607077
-0.000202271
5.96372e-05
0.000487176
-0.00169489
7.46959e-05
-0.00364055
-0.000238629
-0.000646512
0.000948574
-0.000125292
-0.000680087
0.000513884
-8.07397e-05
-0.000636073
0.000464725
-6.3736e-05
-0.000520793
0.000381975
-5.67839e-05
-0.000403167
0.000317263
-4.842e-05
-0.000275442
0.000274076
-3.70326e-05
-0.000149006
0.000239608
-3.03211e-05
-2.35321e-05
0.000213438
-2.19256e-05
0.000100873
0.000193453
-1.76242e-05
0.000222931
0.000176812
-1.25895e-05
0.000348045
0.000162105
-1.24009e-05
0.000472905
0.000155255
-1.10631e-05
0.000613437
0.000141709
-2.25583e-05
0.000759149
0.000143949
-7.9263e-06
0.000947351
0.000110547
-4.03236e-05
0.00114263
0.000100242
-2.12418e-05
0.00130359
-7.0981e-05
5.1436e-05
0.0014612
-0.00032766
-1.36597e-05
0.001172
-0.00135046
8.49353e-05
-0.00261991
-0.000256031
0.000931796
-9.20493e-05
0.00143354
-9.39864e-05
0.00188616
-9.85091e-05
0.00226026
-9.51116e-05
0.00257302
-9.05025e-05
0.00284708
-8.74015e-05
0.00308791
-7.84805e-05
0.00330544
-8.15726e-05
0.00350406
-6.76941e-05
0.0036881
-7.42465e-05
0.00385625
-5.78179e-05
0.00402119
-7.3866e-05
0.00416873
-4.48578e-05
0.0043232
-8.06859e-05
0.0044432
-3.65617e-05
0.00455626
-9.01382e-05
0.0045037
-2.75161e-05
0.00418796
-9.63391e-05
0.00286476
-2.96015e-05
-0.000344579
-7.84047e-06
8.01085e-06
-1.21579e-06
-2.12503e-05
1.38533e-05
-1.36769e-06
-3.60238e-05
1.52826e-05
-1.36425e-06
-5.1134e-05
1.56612e-05
-1.36436e-06
-6.63897e-05
1.584e-05
-1.44372e-06
-8.17298e-05
1.59676e-05
-1.60832e-06
-9.70271e-05
1.59874e-05
-1.87599e-06
-0.000112041
1.57937e-05
-2.27477e-06
-0.000126384
1.52443e-05
-2.84174e-06
-0.000139477