/*--------------------------------*- C++ -*----------------------------------*\
  =========                 |
  \\      /  F ield         | OpenFOAM: The Open Source CFD Toolbox
   \\    /   O peration     | Website:  https://openfoam.org
    \\  /    A nd           | Version:  9
     \\/     M anipulation  |
\*---------------------------------------------------------------------------*/
FoamFile
{
    format      ascii;
    class       volVectorField;
    location    "9";
    object      U;
}
// * * * * * * * * * * * * * * * * * * * * * * * * * * * * * * * * * * * * * //

dimensions      [0 1 -1 0 0 0 0];

internalField   nonuniform List<vector> 
8000
(
(-0.0001696 0.0001915 -3.44884e-05)
(-0.000821779 0.000312638 -6.30341e-06)
(-0.00174301 0.000343817 1.5239e-06)
(-0.0026528 0.000361517 6.06982e-06)
(-0.00360884 0.0003803 5.49981e-06)
(-0.00459283 0.000402507 1.85383e-06)
(-0.00560392 0.000426132 -4.56395e-06)
(-0.00663267 0.000447945 -1.43183e-05)
(-0.00765975 0.000463573 -2.84351e-05)
(-0.00865334 0.000467048 -4.82716e-05)
(-0.00956559 0.000451093 -7.5404e-05)
(-0.0103289 0.000407634 -0.000111493)
(-0.010854 0.000329086 -0.000157843)
(-0.0110317 0.000207515 -0.000215134)
(-0.0107392 3.6291e-05 -0.000283261)
(-0.00986137 -0.00018246 -0.000357172)
(-0.00830032 -0.000426257 -0.000426816)
(-0.00613346 -0.000649003 -0.000471408)
(-0.00331446 -0.000773095 -0.00047581)
(-0.000848602 -0.000559658 -0.00032869)
(-0.000289526 0.000931046 -9.62483e-05)
(-0.00129283 0.00141394 -7.61782e-05)
(-0.00265971 0.00153654 -6.97875e-05)
(-0.00400678 0.00159119 -6.28005e-05)
(-0.00540664 0.00163875 -6.01184e-05)
(-0.00682788 0.00168855 -5.98273e-05)
(-0.00826428 0.00173465 -6.18293e-05)
(-0.00969939 0.00176632 -6.69651e-05)
(-0.011105 0.0017688 -7.66719e-05)
(-0.0124373 0.00172281 -9.26055e-05)
(-0.0136324 0.00160456 -0.000116968)
(-0.0146012 0.00138627 -0.000152482)
(-0.0152306 0.00103821 -0.000201264)
(-0.0153862 0.000536497 -0.000265231)
(-0.0149149 -0.000128051 -0.000346763)
(-0.0136621 -0.000935777 -0.000435576)
(-0.0114965 -0.00181619 -0.000521835)
(-0.00850957 -0.00261259 -0.000579108)
(-0.00463789 -0.00303716 -0.00058512)
(-0.00121084 -0.00227228 -0.000393726)
(-0.000310171 0.00198243 -0.000121875)
(-0.00139204 0.00293689 -0.000105615)
(-0.00286524 0.00317552 -9.96107e-05)
(-0.0043125 0.00326726 -9.12068e-05)
(-0.00581503 0.00333657 -8.67767e-05)
(-0.00733942 0.0034023 -8.44568e-05)
(-0.00888164 0.0034552 -8.42815e-05)
(-0.0104276 0.00347692 -8.72732e-05)
(-0.0119518 0.00344154 -9.51843e-05)
(-0.0134139 0.00331495 -0.000110437)
(-0.0147532 0.0030546 -0.000135683)
(-0.0158835 0.00261037 -0.000174345)
(-0.0166862 0.00192858 -0.000230696)
(-0.0170069 0.000964457 -0.000308377)
(-0.0166616 -0.000300274 -0.000408813)
(-0.0154544 -0.00184024 -0.000526503)
(-0.0131905 -0.00353589 -0.000647417)
(-0.00990266 -0.00510436 -0.000737944)
(-0.00548704 -0.00595903 -0.000762348)
(-0.00146309 -0.00456593 -0.000536431)
(-0.000302718 0.00300832 -0.000140613)
(-0.00138468 0.00443734 -0.000128363)
(-0.00286801 0.00479074 -0.000123043)
(-0.00432559 0.00492043 -0.00011401)
(-0.00584622 0.00501662 -0.000108762)
(-0.00739825 0.00510884 -0.000105528)
(-0.00898378 0.0051857 -0.000104509)
(-0.0105959 0.00522287 -0.000106923)
(-0.0122182 0.00518507 -0.000114819)
(-0.0138202 0.00502435 -0.00013121)
(-0.0153504 0.00467897 -0.000160103)
(-0.0167281 0.00407455 -0.000206328)
(-0.0178332 0.00313011 -0.000275947)
(-0.0184963 0.00176762 -0.000375726)
(-0.0184995 -6.47254e-05 -0.000513733)
(-0.0175705 -0.00235126 -0.000684222)
(-0.0153944 -0.00495413 -0.000873162)
(-0.0118656 -0.00746961 -0.00103874)
(-0.00680443 -0.00893156 -0.0011112)
(-0.00190015 -0.00701303 -0.00084624)
(-0.00028437 0.00404813 -0.000153855)
(-0.00134028 0.00597096 -0.000144785)
(-0.00280538 0.00644593 -0.000140167)
(-0.00424799 0.00661936 -0.000131074)
(-0.00576392 0.00675127 -0.000125919)
(-0.007325 0.00688423 -0.000123045)
(-0.00894199 0.00700725 -0.00012284)
(-0.0106182 0.00709271 -0.000126802)
(-0.0123505 0.0070989 -0.000137418)
(-0.0141243 0.00696707 -0.000158438)
(-0.0159052 0.00661787 -0.000195238)
(-0.0176261 0.00594958 -0.000255246)
(-0.0191725 0.00484121 -0.000348299)
(-0.0203623 0.00316505 -0.00048631)
(-0.0209242 0.000813231 -0.000680519)
(-0.0204991 -0.00224407 -0.000946927)
(-0.0186127 -0.00589744 -0.00126454)
(-0.0148865 -0.00963677 -0.00158831)
(-0.00902188 -0.01201 -0.00179631)
(-0.00271621 -0.00980023 -0.00153466)
(-0.00025965 0.00507068 -0.000165654)
(-0.00127596 0.00750023 -0.000159422)
(-0.00270875 0.00810397 -0.000155518)
(-0.00412258 0.00832843 -0.000146583)
(-0.00561989 0.00850796 -0.000141893)
(-0.00717632 0.00870125 -0.000139977)
(-0.00881265 0.00890111 -0.000141482)
(-0.0105448 0.00908082 -0.000148245)
(-0.0123868 0.0091969 -0.0001633)
(-0.0143457 0.00918455 -0.0001914)
(-0.0164132 0.00895148 -0.000239785)
(-0.0185504 0.00837114 -0.000319328)
(-0.0206634 0.00727851 -0.000445848)
(-0.0225708 0.00547595 -0.000640265)
(-0.0239647 0.00276039 -0.000926396)
(-0.0243942 -0.00101816 -0.0013558)
(-0.0231656 -0.00578958 -0.00191072)
(-0.0194528 -0.0110623 -0.00256898)
(-0.0127607 -0.0147858 -0.00313074)
(-0.00425012 -0.0129222 -0.00308882)
(-0.000229063 0.00606402 -0.000178342)
(-0.00119411 0.00901209 -0.000175208)
(-0.00258155 0.00975144 -0.00017198)
(-0.00395128 0.010033 -0.00016308)
(-0.00541193 0.0102709 -0.000158709)
(-0.00694231 0.0105436 -0.000157678)
(-0.00857341 0.010852 -0.000160954)
(-0.0103352 0.0111755 -0.000170818)
(-0.0122618 0.0114759 -0.000191022)
(-0.0143876 0.0116906 -0.000227554)
(-0.0167401 0.0117233 -0.000290057)
(-0.0193256 0.0114316 -0.000394036)
(-0.0221011 0.0106132 -0.000564059)
(-0.0249249 0.00899521 -0.000837389)
(-0.0274903 0.00624601 -0.00126933)
(-0.0292257 0.0020454 -0.00192591)
(-0.0292595 -0.00373035 -0.00293141)
(-0.0261455 -0.0106074 -0.00427385)
(-0.0190763 -0.0161593 -0.00572295)
(-0.00723029 -0.0160345 -0.00669338)
(-0.000192613 0.00702011 -0.000193082)
(-0.00109508 0.0104983 -0.000193664)
(-0.00242335 0.0113778 -0.000190933)
(-0.00373015 0.0117183 -0.00018161)
(-0.00512972 0.0120197 -0.000176949)
(-0.00660229 0.0123849 -0.000176161)
(-0.00818802 0.0128278 -0.000180586)
(-0.00993033 0.0133399 -0.000193005)
(-0.011884 0.0138973 -0.000217996)
(-0.0141146 0.0144527 -0.000263069)
(-0.0166944 0.0149233 -0.000340741)
(-0.0196916 0.0151729 -0.000472223)
(-0.0231448 0.0149871 -0.000693718)
(-0.0270078 0.0140435 -0.00106558)
(-0.0310442 0.011892 -0.00168227)
(-0.0346999 0.0079848 -0.00269794)
(-0.0368741 0.00184333 -0.00440255)
(-0.0354709 -0.00622004 -0.00704048)
(-0.0293601 -0.01383 -0.0104651)
(-0.012802 -0.0176975 -0.013808)
(-0.000151081 0.00793288 -0.000210931)
(-0.000981737 0.0119524 -0.000216171)
(-0.00223773 0.0129716 -0.000213544)
(-0.00346024 0.0133649 -0.00020296)
(-0.00476873 0.013725 -0.000196901)
(-0.00614174 0.0141841 -0.000195102)
(-0.00762606 0.0147738 -0.000199307)
(-0.00927563 0.0155047 -0.00021277)
(-0.0111624 0.0163763 -0.000240827)
(-0.0133799 0.0173713 -0.000292297)
(-0.0160457 0.0184432 -0.000382314)
(-0.0192997 0.0194962 -0.000537531)
(-0.02329 0.0203539 -0.00080603)
(-0.0281268 0.0207109 -0.00127421)
(-0.0337868 0.0200913 -0.00209383)
(-0.0399213 0.0178106 -0.00354465)
(-0.0453612 0.0130743 -0.00614386)
(-0.0471135 0.00538077 -0.0103086)
(-0.0429479 -0.00501101 -0.0153929)
(-0.0203222 -0.0203656 -0.0211217)
(-0.000106646 0.00880216 -0.000233535)
(-0.000862005 0.0133753 -0.000245053)
(-0.00203672 0.0145271 -0.000242127)
(-0.00315346 0.0149572 -0.000229165)
(-0.0043377 0.0153562 -0.000219979)
(-0.00556195 0.0158925 -0.000215132)
(-0.0068759 0.0166198 -0.000216867)
(-0.00833876 0.0175733 -0.000228925)
(-0.0100321 0.0187862 -0.00025734)
(-0.0120679 0.0202871 -0.000311813)
(-0.0145985 0.0220927 -0.000408969)
(-0.0178255 0.0241896 -0.000578035)
(-0.0220065 0.0265093 -0.000872258)
(-0.0274276 0.0288641 -0.00138605)
(-0.0343409 0.0308966 -0.00227736)
(-0.0427746 0.0318384 -0.00383672)
(-0.0516519 0.0301155 -0.00658175)
(-0.0571686 0.020986 -0.00994529)
(-0.057474 -0.00162789 -0.0112243)
(-0.0290439 -0.0391821 -0.0148241)
(-6.22208e-05 0.00963412 -0.000262768)
(-0.000748226 0.014765 -0.000280794)
(-0.00184128 0.0160216 -0.000275228)
(-0.00283544 0.0164505 -0.000257248)
(-0.00386446 0.0168483 -0.000242758)
(-0.00488731 0.0174251 -0.000233188)
(-0.00595409 0.0182526 -0.000230308)
(-0.00712041 0.019394 -0.000237544)
(-0.00846307 0.0209186 -0.000261263)
(-0.0100926 0.0229072 -0.00031043)
(-0.0121695 0.0254557 -0.000399841)
(-0.0149209 0.0286595 -0.000551821)
(-0.0186812 0.0326249 -0.000804438)
(-0.0238888 0.0373381 -0.0011973)
(-0.0311807 0.0426183 -0.00171529)
(-0.0412409 0.0470383 -0.0021494)
(-0.055123 0.0468036 -0.0018843)
(-0.0706426 0.0279042 0.0016231)
(-0.0785144 -0.0256147 0.0115909)
(-0.0360244 -0.0937903 0.00803901)
(-3.18557e-05 0.0104863 -0.000309018)
(-0.000682786 0.0162451 -0.000343402)
(-0.00170744 0.0176 -0.00033737)
(-0.00256079 0.0180212 -0.000314961)
(-0.00339771 0.0183505 -0.000289232)
(-0.00416643 0.018881 -0.000267425)
(-0.00491456 0.0197051 -0.000252461)
(-0.0056822 0.0209265 -0.000249903)
(-0.00653104 0.0226578 -0.000265134)
(-0.00754676 0.0250374 -0.000305724)
(-0.00886768 0.0282578 -0.000383224)
(-0.0106848 0.0325169 -0.00049925)
(-0.0133725 0.0381735 -0.000647884)
(-0.017472 0.0452627 -0.000696242)
(-0.0244052 0.0539118 -0.000148818)
(-0.0362344 0.0608861 0.00233322)
(-0.0606475 0.0591136 0.00921114)
(-0.0948325 0.014004 0.0235262)
(-0.095576 -0.109759 0.0380877)
(-0.0309175 -0.182074 0.0127017)
(2.23933e-05 0.0112915 -0.000362113)
(-0.000609503 0.0174946 -0.000389872)
(-0.00160167 0.0187835 -0.000370816)
(-0.0023458 0.0189706 -0.000330787)
(-0.00304078 0.0191456 -0.000292335)
(-0.00354044 0.019603 -0.000262772)
(-0.0039151 0.0204281 -0.000241088)
(-0.00417567 0.0217059 -0.000230808)
(-0.00436199 0.0235528 -0.000235186)
(-0.00450436 0.0261231 -0.000256004)
(-0.00470405 0.0297042 -0.000301139)
(-0.00500596 0.0345157 -0.00032175)
(-0.00588533 0.0413065 -0.000270983)
(-0.00771136 0.0498371 0.00028899)
(-0.0134931 0.0615994 0.00233041)
(-0.0267273 0.0699537 0.00876356)
(-0.0637457 0.0606958 0.0222365)
(-0.1035 -0.0385789 0.0375767)
(-0.0881674 -0.217757 0.0310176)
(-0.0376145 -0.2477 -0.00762454)
(-0.000125246 0.0123857 -0.000499516)
(-0.000974344 0.0196653 -0.000573279)
(-0.00197195 0.0209878 -0.000551554)
(-0.0025026 0.0212997 -0.000509034)
(-0.00281094 0.0211597 -0.000442495)
(-0.00289312 0.0212909 -0.000383486)
(-0.00281402 0.0217168 -0.000328745)
(-0.00255581 0.022628 -0.000288054)
(-0.00210792 0.0241708 -0.000267493)
(-0.00138161 0.0265041 -0.00025998)
(-0.000449173 0.0299849 -0.000294482)
(0.00100549 0.0348349 -0.000247245)
(0.0021842 0.0420757 -0.000103043)
(0.00407136 0.0512538 0.000960233)
(0.001153 0.0654086 0.00412932)
(-0.00724697 0.073288 0.0131043)
(-0.045672 0.0519135 0.0279523)
(-0.0741888 -0.0919626 0.030901)
(-0.0791428 -0.248294 0.0108638)
(-0.0464442 -0.30574 -0.0154062)
(0.000228006 0.0141948 -0.00067029)
(-0.000605633 0.020726 -0.000677452)
(-0.00184649 0.021421 -0.00060885)
(-0.002456 0.0205382 -0.000500746)
(-0.003067 0.0200082 -0.000399434)
(-0.00296698 0.0199374 -0.000326079)
(-0.00256012 0.0203415 -0.000263861)
(-0.00170621 0.0212264 -0.000218648)
(-0.000474495 0.0226839 -0.00019824)
(0.00131799 0.024795 -0.000169243)
(0.00362427 0.0279015 -0.000191459)
(0.0071261 0.0321173 -0.00014168)
(0.0107082 0.0385064 0.000132941)
(0.0175272 0.0463491 0.000965021)
(0.0190817 0.0591905 0.00496041)
(0.024316 0.0664205 0.0129371)
(-0.00785253 0.0376948 0.0257541)
(-0.0245573 -0.10897 0.0201446)
(-0.0695905 -0.251394 0.010468)
(-0.0305195 -0.356029 -0.0237918)
(-0.00176754 0.0141311 -0.00099093)
(-0.00386926 0.0251986 -0.00101609)
(-0.00433407 0.0258014 -0.000994995)
(-0.0042868 0.0261411 -0.000967992)
(-0.00350377 0.0245743 -0.000810303)
(-0.00260784 0.0236498 -0.000663874)
(-0.00155154 0.022828 -0.000524245)
(-0.000216265 0.0225707 -0.000407098)
(0.001482 0.0228888 -0.000333723)
(0.00388916 0.0238486 -0.000269597)
(0.00697556 0.0256956 -0.000283224)
(0.0118771 0.028359 -0.000350406)
(0.0170198 0.0329414 -8.05149e-05)
(0.0274059 0.0380529 0.000383492)
(0.03275 0.0471884 0.00345214)
(0.0500415 0.0538618 0.00976261)
(0.0311582 0.0267975 0.0196454)
(0.0239101 -0.0955037 0.015094)
(-0.0497122 -0.249282 0.0117474)
(-0.0229594 -0.37004 -0.0310782)
(0.00254923 0.0249943 -0.00259445)
(0.000654366 0.024655 -0.00242794)
(-0.00372699 0.0237821 -0.00150166)
(-0.00421231 0.020191 -0.000970861)
(-0.00555372 0.0187244 -0.000673886)
(-0.0045567 0.0179583 -0.000509763)
(-0.00345031 0.0177638 -0.000368653)
(-0.00145425 0.0178223 -0.000245451)
(0.000988098 0.0182892 -0.000190095)
(0.00429854 0.0188584 -0.000141527)
(0.00828623 0.0200203 -0.000213922)
(0.0145553 0.0211883 -0.000410575)
(0.0207061 0.0234146 -0.000412544)
(0.0336154 0.0248209 -0.000301861)
(0.0401141 0.0269939 0.00115481)
(0.0635829 0.0271963 0.00542185)
(0.0562457 0.00741641 0.0124591)
(0.0529508 -0.0781726 0.0125874)
(-0.0344862 -0.226499 0.00922018)
(-0.0158657 -0.379462 -0.0327111)
(-0.00653041 0.0145576 -0.0013723)
(-0.0109951 0.0422267 -0.00148402)
(-0.00550841 0.0371196 -0.00185542)
(-0.00740097 0.0355375 -0.00249816)
(-0.0055545 0.0301772 -0.00211552)
(-0.00403507 0.0269273 -0.00162987)
(-0.00204137 0.023857 -0.00117402)
(0.000475039 0.0216196 -0.000740354)
(0.00328966 0.020084 -0.000530021)
(0.00711385 0.0188058 -0.000332628)
(0.0112026 0.0181257 -0.000429744)
(0.0177456 0.017372 -0.000584413)
(0.0230313 0.0177398 -0.00107313)
(0.0351809 0.0167978 -0.000862945)
(0.0377017 0.0185682 -0.00140781)
(0.0602081 0.0134469 0.00214893)
(0.0469272 0.00853552 0.00502378)
(0.0745566 -0.0440968 0.00676681)
(-0.00529164 -0.196436 0.00863787)
(0.00917455 -0.363988 -0.0388238)
(-0.0507238 0.0558575 -0.0119298)
(-0.0282204 0.0217928 -0.00626574)
(-0.037109 0.0234615 -0.0042029)
(-0.019267 0.0216344 -0.00319601)
(-0.0110618 0.017591 -0.0025626)
(0.00241605 0.0152862 -0.00165231)
(0.0120138 0.0137519 -0.0011411)
(0.0231225 0.0120359 -0.000502601)
(0.0312619 0.0113085 -0.000285513)
(0.0418992 0.00977455 -7.21478e-06)
(0.0479219 0.0096633 -0.000158568)
(0.0605989 0.00820957 -0.000215368)
(0.0632283 0.00857327 -0.0011776)
(0.0846568 0.00673164 -0.000881941)
(0.077202 0.00534604 -0.00261792)
(0.119365 -0.00119495 -0.00188753)
(0.0899466 -0.0183181 0.00264623)
(0.144419 -0.0638082 0.00314251)
(0.0671755 -0.201036 0.0107672)
(0.0477135 -0.334086 -0.0432572)
(0.0890206 0.103871 -0.00881398)
(0.113529 0.0561578 -0.0085008)
(0.16609 0.039596 -0.00882935)
(0.205695 0.0268022 -0.00818998)
(0.231293 0.0192871 -0.00755077)
(0.259878 0.0133644 -0.00676449)
(0.274625 0.00991565 -0.00602075)
(0.299545 0.00700563 -0.00582854)
(0.305851 0.00554593 -0.00475253)
(0.330666 0.00410912 -0.004849)
(0.329028 0.00329872 -0.00392159)
(0.357346 0.00268397 -0.00437865)
(0.346777 0.00200854 -0.00293422)
(0.381255 0.00173374 -0.00481955)
(0.359578 6.36141e-05 -0.00187229)
(0.39898 -0.00221173 -0.00556758)
(0.355871 -0.00888175 -0.000320446)
(0.380321 -0.0259509 -0.00608702)
(0.255309 -0.0601113 0.00059929)
(0.14951 -0.118265 -0.0554995)
(-0.000252264 0.000259945 -8.94063e-05)
(-0.00124366 0.000475468 -5.81547e-05)
(-0.00264965 0.000529647 -4.74018e-05)
(-0.00401969 0.000550511 -4.10118e-05)
(-0.0054351 0.000568434 -4.39244e-05)
(-0.00686579 0.000588675 -5.36385e-05)
(-0.00830728 0.000608383 -7.03735e-05)
(-0.00974307 0.000622813 -9.58171e-05)
(-0.0111434 0.000625673 -0.000132566)
(-0.0124624 0.00060891 -0.000183953)
(-0.0136344 0.000562679 -0.00025375)
(-0.0145698 0.000475981 -0.000345822)
(-0.0151541 0.000338746 -0.00046324)
(-0.0152512 0.000140643 -0.000607198)
(-0.0147103 -0.000127146 -0.000774578)
(-0.0133914 -0.000453495 -0.000953803)
(-0.0111796 -0.000806951 -0.00112301)
(-0.00818254 -0.00111509 -0.00124117)
(-0.00434348 -0.0012453 -0.00127132)
(-0.001077 -0.000826296 -0.000961076)
(-0.000489234 0.00132471 -0.000197329)
(-0.0021594 0.00217396 -0.000183948)
(-0.00441688 0.00238283 -0.000174835)
(-0.00661259 0.00244197 -0.000163404)
(-0.00884854 0.00247249 -0.000160887)
(-0.0110688 0.00249466 -0.000165078)
(-0.0132564 0.00250041 -0.000176739)
(-0.0153796 0.00247428 -0.00019828)
(-0.0173911 0.00239535 -0.000233279)
(-0.0192237 0.00223694 -0.000286215)
(-0.0207862 0.00196725 -0.000362419)
(-0.0219579 0.00154994 -0.000467666)
(-0.0225918 0.000947428 -0.000606646)
(-0.0225219 0.000132083 -0.000783214)
(-0.0215556 -0.000900908 -0.000995561)
(-0.0195113 -0.00211424 -0.00122564)
(-0.0162472 -0.0033959 -0.00144786)
(-0.0118962 -0.00449585 -0.001608)
(-0.00639088 -0.00492789 -0.00164798)
(-0.00163516 -0.00340384 -0.00122027)
(-0.000548723 0.00287102 -0.000244871)
(-0.00241278 0.00454426 -0.000240804)
(-0.00492003 0.0049478 -0.000232283)
(-0.00734953 0.00503904 -0.000217956)
(-0.00981599 0.00506081 -0.000212128)
(-0.0122578 0.00505329 -0.000212791)
(-0.0146589 0.00500447 -0.000221113)
(-0.0169889 0.00488812 -0.000240064)
(-0.0192024 0.00466782 -0.000274078)
(-0.0212346 0.00429638 -0.000329023)
(-0.0229966 0.00371659 -0.000411844)
(-0.02437 0.0028637 -0.000530567)
(-0.0251994 0.00167087 -0.00069404)
(-0.0252907 8.66371e-05 -0.000909098)
(-0.024418 -0.00190228 -0.00117661)
(-0.0223462 -0.00424301 -0.00148249)
(-0.0188493 -0.00673767 -0.00179414)
(-0.0139863 -0.00892655 -0.00204091)
(-0.00764538 -0.00981637 -0.00212861)
(-0.00200254 -0.00696669 -0.00160784)
(-0.000552899 0.00438278 -0.000282099)
(-0.00245952 0.00688871 -0.00028739)
(-0.00503321 0.00748462 -0.000280036)
(-0.00752592 0.00760788 -0.000264173)
(-0.0100644 0.00762723 -0.000256527)
(-0.0125889 0.00760399 -0.000255382)
(-0.0150913 0.00752345 -0.00026239)
(-0.0175502 0.00735028 -0.000281167)
(-0.0199319 0.00703428 -0.000317148)
(-0.022184 0.00650872 -0.000377863)
(-0.0242278 0.00568956 -0.000473125)
(-0.0259498 0.00447868 -0.000614931)
(-0.0271908 0.00277276 -0.000817067)
(-0.0277374 0.000477021 -0.00109286)
(-0.0273116 -0.00246137 -0.00146085)
(-0.0255718 -0.00600732 -0.00190286)
(-0.0221359 -0.00990775 -0.0023868)
(-0.0168678 -0.0134929 -0.00281932)
(-0.00957296 -0.0151237 -0.00302079)
(-0.00263682 -0.0110555 -0.00237278)
(-0.000539457 0.00591944 -0.000311462)
(-0.00244551 0.00929227 -0.00032511)
(-0.00503903 0.0100911 -0.000319068)
(-0.00755454 0.0102541 -0.000302637)
(-0.0101306 0.0102829 -0.000294668)
(-0.0127121 0.0102631 -0.000293789)
(-0.0153035 0.0101803 -0.000302213)
(-0.0178976 0.00999321 -0.00032441)
(-0.0204781 0.00964056 -0.000367173)
(-0.0230133 0.00903819 -0.000440268)
(-0.0254454 0.00807519 -0.000557273)
(-0.0276764 0.00661277 -0.000736484)
(-0.0295498 0.00449026 -0.00100108)
(-0.0308272 0.00154373 -0.00137875)
(-0.0311728 -0.00235311 -0.00189527)
(-0.0301148 -0.00724643 -0.00257203)
(-0.0270424 -0.0128841 -0.00337086)
(-0.0214607 -0.0184025 -0.00417895)
(-0.0130376 -0.0213289 -0.00467166)
(-0.00393139 -0.016441 -0.00390735)
(-0.000519045 0.00744444 -0.000339512)
(-0.00241072 0.0117118 -0.000361429)
(-0.00501117 0.0127253 -0.000356742)
(-0.00753766 0.0129384 -0.00034002)
(-0.0101404 0.0129935 -0.000332221)
(-0.0127704 0.0130047 -0.000332438)
(-0.0154468 0.0129619 -0.000343568)
(-0.0181808 0.0128228 -0.000371058)
(-0.02098 0.0125201 -0.000423319)
(-0.0238417 0.0119565 -0.00051296)
(-0.0267425 0.0109966 -0.000658575)
(-0.029619 0.00945949 -0.000887215)
(-0.0323385 0.00711464 -0.00123702)
(-0.0346593 0.00369143 -0.00175864)
(-0.036212 -0.00108691 -0.00250998)
(-0.0363877 -0.00739532 -0.00357046)
(-0.034289 -0.0151439 -0.00493539)
(-0.0288555 -0.0233515 -0.00650605)
(-0.0195539 -0.028613 -0.00772625)
(-0.00676423 -0.0244857 -0.00711444)
(-0.00049342 0.00894846 -0.000370508)
(-0.00236254 0.0141387 -0.000401683)
(-0.004962 0.015379 -0.000398214)
(-0.00748854 0.0156514 -0.000380754)
(-0.010104 0.0157485 -0.00037256)
(-0.0127653 0.0158186 -0.000373324)
(-0.015508 0.0158614 -0.0003867)
(-0.0183645 0.0158396 -0.000419237)
(-0.0213721 0.015688 -0.000481214)
(-0.0245673 0.0153044 -0.000588542)
(-0.0279765 0.0145368 -0.000766015)
(-0.0315974 0.0131668 -0.00105221)
(-0.0353652 0.0108918 -0.00150626)
(-0.0390978 0.00731097 -0.00221487)
(-0.0424113 0.00194399 -0.00330026)
(-0.0446632 -0.00564814 -0.00494383)
(-0.0447498 -0.0157166 -0.00733911)
(-0.0408831 -0.0274052 -0.0104152)
(-0.0323352 -0.0370587 -0.0133367)
(-0.0134141 -0.0381625 -0.0138815)
(-0.00046267 0.0104261 -0.000407221)
(-0.00230194 0.0165697 -0.000449353)
(-0.00489185 0.0180466 -0.000446631)
(-0.00740281 0.0183822 -0.000427251)
(-0.0100083 0.0185311 -0.000417085)
(-0.0126695 0.0186819 -0.000416571)
(-0.015438 0.0188506 -0.000430135)
(-0.0183692 0.0190137 -0.000465397)
(-0.0215339 0.0191187 -0.000534507)
(-0.0250168 0.0190739 -0.000656963)
(-0.0289114 0.0187296 -0.000864566)
(-0.0333063 0.0178511 -0.00120999)
(-0.0382567 0.0160834 -0.00178106)
(-0.0437213 0.0129077 -0.00272173)
(-0.0494716 0.0076203 -0.00425948)
(-0.0550487 -0.000639385 -0.00674624)
(-0.0594073 -0.0126384 -0.0107535)
(-0.0602592 -0.028319 -0.0163288)
(-0.0553559 -0.0461064 -0.0218179)
(-0.0257213 -0.064433 -0.0238864)
(-0.000427743 0.0118728 -0.000452542)
(-0.0022322 0.0190015 -0.000508011)
(-0.00480426 0.0207186 -0.000505064)
(-0.00727969 0.0211115 -0.000481738)
(-0.00984336 0.02131 -0.000466943)
(-0.0124575 0.0215502 -0.000461993)
(-0.0151879 0.0218717 -0.000471993)
(-0.0181114 0.0222734 -0.000505351)
(-0.0213311 0.022729 -0.000575597)
(-0.0249818 0.0231759 -0.000704925)
(-0.0292337 0.0234941 -0.000931027)
(-0.0342933 0.0234724 -0.00131985)
(-0.0403941 0.0227592 -0.00198985)
(-0.0477635 0.0207961 -0.00315344)
(-0.0565944 0.0167727 -0.00518215)
(-0.0670025 0.00954549 -0.00869508)
(-0.0782149 -0.00271414 -0.0143402)
(-0.0860927 -0.0236707 -0.0207307)
(-0.0831649 -0.0615911 -0.0223434)
(-0.0326833 -0.122314 -0.0219667)
(-0.000391721 0.013291 -0.000510808)
(-0.00216358 0.0214423 -0.000583456)
(-0.00471367 0.0233967 -0.000579224)
(-0.0071313 0.0238293 -0.000549243)
(-0.00961411 0.0240564 -0.000525816)
(-0.0121207 0.024372 -0.000511594)
(-0.0147276 0.0248477 -0.000512418)
(-0.0175281 0.025515 -0.000537196)
(-0.0206523 0.0263885 -0.000600168)
(-0.0242795 0.0274593 -0.000724692)
(-0.0286538 0.0286748 -0.000951112)
(-0.0341033 0.0299078 -0.00135201)
(-0.0410623 0.0309064 -0.00206512)
(-0.0500806 0.0312325 -0.0033425)
(-0.0619064 0.0302111 -0.00558741)
(-0.0774266 0.0262884 -0.0091626)
(-0.0949216 0.0140763 -0.0127853)
(-0.104771 -0.022907 -0.00880946)
(-0.0960396 -0.104474 0.00973668)
(-0.0208973 -0.20562 0.00324725)
(-0.000356832 0.0146821 -0.000587057)
(-0.0021073 0.0238695 -0.000677958)
(-0.00464206 0.0260234 -0.00066763)
(-0.00698595 0.0264434 -0.000625398)
(-0.0093508 0.0266574 -0.000588734)
(-0.0116803 0.027018 -0.000561082)
(-0.0140586 0.0276236 -0.000547252)
(-0.0165869 0.0285419 -0.000554848)
(-0.0194065 0.0298369 -0.000597412)
(-0.0227191 0.0315664 -0.000695283)
(-0.0268147 0.0337743 -0.00088275)
(-0.0321093 0.0364717 -0.00122062)
(-0.0392015 0.0396213 -0.00182476)
(-0.0488951 0.0430576 -0.00285047)
(-0.0623232 0.0462061 -0.00423573)
(-0.0803392 0.0453168 -0.00435324)
(-0.100286 0.0273651 0.00381663)
(-0.108959 -0.0378919 0.0325576)
(-0.0955568 -0.162624 0.0635985)
(-0.0121712 -0.259556 0.0163457)
(-0.00034981 0.0161403 -0.000702177)
(-0.00213755 0.026523 -0.000830766)
(-0.00467581 0.0288946 -0.000817534)
(-0.00691281 0.0293103 -0.000762795)
(-0.00909486 0.0294181 -0.00070135)
(-0.0111681 0.0297005 -0.000645681)
(-0.0132154 0.0303 -0.000602466)
(-0.0153289 0.0313482 -0.000582004)
(-0.0176452 0.0329763 -0.000594814)
(-0.020364 0.0353305 -0.000656522)
(-0.0237793 0.0385859 -0.000791437)
(-0.0283146 0.0429366 -0.00102344)
(-0.0346122 0.0486385 -0.00137546)
(-0.0434567 0.0556366 -0.00162285)
(-0.0562505 0.0627811 -0.000362228)
(-0.0735373 0.062129 0.00787012)
(-0.0950068 0.0347177 0.0345463)
(-0.107646 -0.0588369 0.0778961)
(-0.0893153 -0.218093 0.0742134)
(-0.0137485 -0.302657 0.00358411)
(-0.000285083 0.0174878 -0.000842793)
(-0.00209367 0.0287124 -0.000972928)
(-0.00470801 0.0310397 -0.000933927)
(-0.00691418 0.0311123 -0.000842754)
(-0.00901611 0.0310498 -0.000752994)
(-0.0108109 0.0312852 -0.00067456)
(-0.0124229 0.0319579 -0.000608727)
(-0.0139243 0.0331735 -0.000560879)
(-0.0154391 0.0350788 -0.000536342)
(-0.0171251 0.037871 -0.000538093)
(-0.0192245 0.0418405 -0.000574469)
(-0.0220547 0.0473075 -0.000580026)
(-0.0262805 0.0548697 -0.000442264)
(-0.0325309 0.0642401 0.000741525)
(-0.0427935 0.0743979 0.00589618)
(-0.0565289 0.0729576 0.0233321)
(-0.0799304 0.0391747 0.0601634)
(-0.0907024 -0.0850853 0.0856969)
(-0.0702389 -0.257793 0.0337174)
(-0.0104799 -0.353953 -0.00130434)
(-0.000570564 0.019279 -0.00113137)
(-0.00284949 0.032539 -0.00134431)
(-0.00551444 0.0350904 -0.00129838)
(-0.00744162 0.0353958 -0.00119877)
(-0.00900182 0.034859 -0.0010576)
(-0.0102828 0.0345963 -0.000922252)
(-0.0113378 0.0347111 -0.000791437)
(-0.0122101 0.0354784 -0.000681174)
(-0.0129395 0.0371013 -0.000599265)
(-0.0135765 0.0398443 -0.000536521)
(-0.0142797 0.0440996 -0.000518146)
(-0.0150669 0.0502484 -0.000358466)
(-0.0167191 0.0593617 0.000103444)
(-0.0185066 0.070235 0.00252308)
(-0.0240314 0.0837946 0.0103003)
(-0.0276926 0.0802226 0.0315629)
(-0.0482891 0.0434733 0.0648287)
(-0.0459463 -0.10241 0.062859)
(-0.0554359 -0.256093 0.00833592)
(0.000789421 -0.386219 -0.0104003)
(0.000125937 0.0218044 -0.00153317)
(-0.00185781 0.0340023 -0.00170147)
(-0.0052819 0.0356134 -0.00154874)
(-0.00760789 0.0341695 -0.00131437)
(-0.00982939 0.0333578 -0.00109688)
(-0.0109192 0.0330567 -0.000918568)
(-0.0115056 0.0333746 -0.000758337)
(-0.0115088 0.0343212 -0.000621488)
(-0.0110636 0.0360593 -0.000516124)
(-0.0101399 0.038786 -0.000401584)
(-0.00886521 0.0429457 -0.000337547)
(-0.00669163 0.0486935 -8.70184e-05)
(-0.00509983 0.057483 0.000580765)
(9.35479e-05 0.0673088 0.00304698)
(-0.000212169 0.0801168 0.0112828)
(0.0108995 0.0773399 0.0298888)
(-0.00654682 0.0410215 0.0549633)
(0.00609749 -0.0963549 0.0407956)
(-0.0446984 -0.249456 0.0123419)
(0.0171957 -0.407373 -0.0231594)
(-0.0030542 0.0209407 -0.00199066)
(-0.00710364 0.0409853 -0.00212678)
(-0.00878723 0.0433771 -0.00216962)
(-0.0101293 0.0438288 -0.00211849)
(-0.0102669 0.04128 -0.00183511)
(-0.0104162 0.039513 -0.00154524)
(-0.0101866 0.0379731 -0.00125557)
(-0.00958394 0.0373344 -0.000997233)
(-0.0084744 0.0376046 -0.000798006)
(-0.00660926 0.0389934 -0.000615742)
(-0.00413925 0.0418494 -0.000544179)
(0.000243959 0.0462229 -0.000375934)
(0.00436994 0.0535992 0.000235214)
(0.0141145 0.0620554 0.0020136)
(0.0186469 0.0725946 0.00852103)
(0.0400711 0.0729497 0.0228473)
(0.0288254 0.0391209 0.0400616)
(0.0554414 -0.070753 0.0275921)
(-0.0264803 -0.232153 0.0177488)
(0.0313962 -0.416247 -0.0220944)
(0.00304428 0.0359255 -0.00480284)
(-0.00183795 0.0394402 -0.00482637)
(-0.0109872 0.0386782 -0.00330522)
(-0.0122726 0.0334378 -0.00236582)
(-0.0146907 0.0319528 -0.00184059)
(-0.0139694 0.0311059 -0.00150656)
(-0.01322 0.0309337 -0.00120188)
(-0.0114035 0.0311048 -0.000919031)
(-0.0090028 0.0317907 -0.000720904)
(-0.00559265 0.0329065 -0.000539599)
(-0.00141636 0.0350103 -0.00054852)
(0.00546255 0.0378229 -0.000572212)
(0.0122183 0.0422621 -0.000379463)
(0.0265953 0.0472304 0.000595192)
(0.0345405 0.0509632 0.00374545)
(0.0626434 0.0500905 0.0132181)
(0.0593907 0.0212257 0.0240286)
(0.0831961 -0.0513999 0.0205881)
(-0.00951103 -0.199969 0.015959)
(0.0509096 -0.408929 -0.0275677)
(-0.00310916 0.0158616 -0.00306993)
(-0.00425021 0.0603909 -0.00344676)
(0.00161055 0.0576268 -0.0039134)
(-0.00620232 0.0556454 -0.00475911)
(-0.00807868 0.0486764 -0.00416704)
(-0.0105301 0.0444752 -0.00339606)
(-0.0111061 0.040327 -0.00260522)
(-0.0103469 0.0375865 -0.00186152)
(-0.00837721 0.0354617 -0.00140219)
(-0.00477912 0.0340604 -0.000982298)
(-0.000240047 0.0332907 -0.00105879)
(0.00706834 0.0334131 -0.00104968)
(0.0142437 0.0347292 -0.0016345)
(0.0276934 0.0366577 -0.000749826)
(0.0344094 0.0405678 -0.00122879)
(0.0588187 0.038755 0.00707437)
(0.0516539 0.0256307 0.0100753)
(0.0882603 -0.00597098 0.00878245)
(0.0248215 -0.166221 0.0149353)
(0.0835334 -0.392573 -0.0319656)
(-0.0776051 0.0549168 -0.0162725)
(-0.0562656 0.0321153 -0.00873627)
(-0.0757746 0.0397388 -0.0065624)
(-0.0538836 0.0374253 -0.00559296)
(-0.0485168 0.032497 -0.0045923)
(-0.033059 0.0301183 -0.00322762)
(-0.0214882 0.0276916 -0.00249208)
(-0.0085016 0.0254434 -0.0015351)
(0.00382346 0.0240225 -0.00117523)
(0.0164351 0.022115 -0.000665721)
(0.028034 0.0212577 -0.000854863)
(0.0420977 0.0201183 -0.000807426)
(0.0516803 0.0195559 -0.00243447)
(0.0726519 0.0200968 -0.00104767)
(0.0766596 0.0159691 -0.00466519)
(0.115803 0.0171634 -0.00293483)
(0.106223 -0.0100914 0.00655828)
(0.157869 -0.0396917 -2.52184e-07)
(0.119453 -0.191691 0.0159419)
(0.136592 -0.36526 -0.0358218)
(0.0834826 0.122938 -0.0122163)
(0.113231 0.0739813 -0.0119688)
(0.164963 0.0562587 -0.0124771)
(0.211158 0.0425128 -0.0117876)
(0.240437 0.0338969 -0.0109779)
(0.274417 0.0273647 -0.0103308)
(0.294117 0.0224509 -0.00909627)
(0.324173 0.0191608 -0.00937264)
(0.335995 0.0162775 -0.00749856)
(0.366019 0.0146618 -0.00832178)
(0.370439 0.0123485 -0.00617616)
(0.402294 0.0120243 -0.00822734)
(0.400075 0.00982201 -0.00458829)
(0.434904 0.00982816 -0.00903236)
(0.424579 0.0076993 -0.0033196)
(0.461447 0.00499497 -0.010186)
(0.435472 -0.00133892 -0.00161401)
(0.454974 -0.0173932 -0.0110657)
(0.359919 -0.0537787 -0.000727876)
(0.255398 -0.115386 -0.0534435)
(-0.000267533 0.000261604 -0.000116932)
(-0.00134213 0.000501222 -0.000122662)
(-0.0028724 0.000561425 -0.000119618)
(-0.00435507 0.000582459 -0.000117621)
(-0.00587988 0.000598928 -0.000123803)
(-0.00741294 0.000617114 -0.000138077)
(-0.00894943 0.000634016 -0.000161865)
(-0.0104717 0.0006446 -0.0001977)
(-0.0119484 0.000642209 -0.00024903)
(-0.0133318 0.000618171 -0.000320095)
(-0.0145537 0.000561895 -0.000415524)
(-0.0155215 0.000461614 -0.000539885)
(-0.0161165 0.000306327 -0.000696684)
(-0.0161964 8.37438e-05 -0.00088674)
(-0.0156026 -0.000214617 -0.00110408)
(-0.0141876 -0.000577046 -0.00133516)
(-0.0118265 -0.000968346 -0.00155575)
(-0.00863339 -0.00130655 -0.00172461)
(-0.00454332 -0.00143886 -0.00179313)