/*--------------------------------*- C++ -*----------------------------------*\
  =========                 |
  \\      /  F ield         | OpenFOAM: The Open Source CFD Toolbox
   \\    /   O peration     | Website:  https://openfoam.org
    \\  /    A nd           | Version:  9
     \\/     M anipulation  |
\*---------------------------------------------------------------------------*/
FoamFile
{
    format      ascii;
    class       volScalarField;
    location    "10";
    object      p;
}
// * * * * * * * * * * * * * * * * * * * * * * * * * * * * * * * * * * * * * //

dimensions      [0 2 -2 0 0 0 0];

internalField   nonuniform List<scalar> 
400
(
8.24236e-09
-2.92099e-06
5.27329e-05
0.000146194
0.000285624
0.000474589
0.00071923
0.00102712
0.0014071
0.00186885
0.00242182
0.00307333
0.0038263
0.00467455
0.0055966
0.00654739
0.00745327
0.00819518
0.00870488
0.00877087
3.65632e-06
6.62755e-07
5.79036e-05
0.000150147
0.000286611
0.000470903
0.000709132
0.00100873
0.00137847
0.00182825
0.0023684
0.0030081
0.00375226
0.00459769
0.00552802
0.00650311
0.00744792
0.0082336
0.00878199
0.00883775
-6.60546e-05
-7.26138e-05
-1.8865e-05
6.70836e-05
0.000194822
0.000367782
0.000592097
0.000875424
0.00122714
0.0016584
0.00218188
0.00281064
0.00355649
0.00442529
0.00540919
0.00647339
0.0075395
0.00845414
0.00910652
0.00914091
-0.000187083
-0.000196677
-0.000148722
-7.26145e-05
4.14185e-05
0.000196565
0.000398927
0.000656376
0.00097898
0.00137955
0.00187407
0.00248172
0.00322339
0.00411696
0.00516932
0.00636298
0.00762159
0.00876263
0.00961998
0.00962348
-0.000362613
-0.000375748
-0.000336102
-0.000273472
-0.00017816
-4.74103e-05
0.000124531
0.000345399
0.000625772
0.000979873
0.00142684
0.00199204
0.00270795
0.00361083
0.00472916
0.00608206
0.00761119
0.00911272
0.0103264
0.0102953
-0.000587863
-0.000605185
-0.00057611
-0.000530471
-0.000458951
-0.000359524
-0.000227287
-5.54264e-05
0.000165898
0.000451075
0.000820786
0.00130483
0.00194591
0.00280296
0.00394559
0.00541904
0.00725228
0.00928973
0.011119
0.0110774
-0.000856107
-0.00087816
-0.000861567
-0.000836082
-0.000793143
-0.000731893
-0.00064906
-0.000539892
-0.000397155
-0.00020956
4.08717e-05
0.000382502
0.000859081
0.00153862
0.00252144
0.00393858
0.00592945
0.00862557
0.0113908
0.0115887
-0.00115967
-0.00118682
-0.00118408
-0.00118115
-0.00117067
-0.00115347
-0.00112888
-0.0010957
-0.00105166
-0.000992467
-0.000910212
-0.000790672
-0.000608283
-0.000321263
0.000131582
0.000865961
0.00228672
0.00521065
0.00885416
0.0104069
-0.00148988
-0.00152227
-0.00153394
-0.00155475
-0.00157892
-0.00160949
-0.00164941
-0.00170268
-0.00177485
-0.00187356
-0.0020095
-0.00219825
-0.00246448
-0.00286002
-0.00350804
-0.00448057
-0.00513022
-0.00262461
0.00153144
0.00544582
-0.00183731
-0.00187447
-0.00189962
-0.00194332
-0.00200148
-0.00207993
-0.0021856
-0.00232859
-0.00252398
-0.00279491
-0.00317831
-0.00373611
-0.00458141
-0.00591645
-0.00819402
-0.0116617
-0.0159848
-0.0140291
-0.00967274
-0.00310567
-0.00219363
-0.00223583
-0.0022729
-0.00233747
-0.0024259
-0.00254772
-0.00271403
-0.00294141
-0.00325492
-0.00369461
-0.00432594
-0.00525604
-0.00670184
-0.00898185
-0.0129019
-0.0185775
-0.0264952
-0.0255315
-0.0212707
-0.0132929
-0.00254747
-0.00259141
-0.00263378
-0.0027114
-0.0028222
-0.00297849
-0.0031931
-0.00348684
-0.00389166
-0.00445756
-0.00527142
-0.00645352
-0.00832712
-0.0111547
-0.0162003
-0.0225163
-0.0320439
-0.0319722
-0.0282514
-0.0208925
-0.00290195
-0.00295422
-0.0029986
-0.00308953
-0.00321151
-0.00338658
-0.00362693
-0.00395719
-0.00441112
-0.0050389
-0.00594051
-0.00719106
-0.00922753
-0.0119154
-0.0174132
-0.0229728
-0.0317419
-0.0313721
-0.0292676
-0.0225483
-0.00323121
-0.00327189
-0.00329872
-0.0033672
-0.00348402
-0.00366393
-0.00391974
-0.00426942
-0.00474186
-0.00537286
-0.00626907
-0.00741634
-0.00931312
-0.0116212
-0.0159802
-0.0202452
-0.0262385
-0.0253431
-0.0250746
-0.0189215
-0.00355208
-0.0036501
-0.00365565
-0.0037646
-0.00385871
-0.00402164
-0.00424178
-0.00455235
-0.0049776
-0.00553713
-0.00633183
-0.00731957
-0.00885708
-0.0105675
-0.0136176
-0.0160457
-0.0198988
-0.0176359
-0.0180944
-0.0122857
-0.00400445
-0.003917
-0.00385697
-0.00378886
-0.0038412
-0.00397683
-0.00420219
-0.00451812
-0.00493517
-0.00544485
-0.00613025
-0.006924
-0.00806481
-0.00916011
-0.0109816
-0.0118788
-0.0131382
-0.0107143
-0.0121451
-0.00455001
-0.00379613
-0.00432015
-0.00424097
-0.00448217
-0.00443924
-0.00452824
-0.00462413
-0.00481822
-0.00510522
-0.00548091
-0.00600993
-0.00660101
-0.00748026
-0.00822538
-0.00957162
-0.0100214
-0.0108309
-0.00777426
-0.0079922
0.00549789
-0.00588536
-0.00469075
-0.00438264
-0.0037564
-0.00367642
-0.00373592
-0.00393684
-0.00423079
-0.00460087
-0.00501306
-0.00551599
-0.00603542
-0.00665123
-0.00715089
-0.00767191
-0.00754882
-0.00711881
-0.00500751
-0.00239166
0.0235254
-0.00245556
-0.00576696
-0.00501154
-0.00552586
-0.00504664
-0.0050455
-0.0049375
-0.00500122
-0.00513974
-0.00535146
-0.00572963
-0.00613894
-0.00671327
-0.00743256
-0.00841529
-0.00893069
-0.0102688
-0.00500405
0.00342359
0.0532166
-0.0169955
-0.0041598
-0.00309783
-0.00286167
-0.00283004
-0.00292506
-0.00320008
-0.00352531
-0.00391729
-0.00432058
-0.00481513
-0.00531962
-0.00583935
-0.00619506
-0.00637245
-0.00434861
0.000167744
0.0191109
0.0569303
0.145678
)
;

boundaryField
{
    movingWall
    {
        type            zeroGradient;
    }
    fixedWalls
    {
        type            zeroGradient;
    }
    frontAndBack
    {
        type            empty;
    }
}


// ************************************************************************* //
