/*--------------------------------*- C++ -*----------------------------------*\
  =========                 |
  \\      /  F ield         | OpenFOAM: The Open Source CFD Toolbox
   \\    /   O peration     | Website:  https://openfoam.org
    \\  /    A nd           | Version:  9
     \\/     M anipulation  |
\*---------------------------------------------------------------------------*/
FoamFile
{
    format      ascii;
    class       surfaceScalarField;
    location    "10";
    object      phi;
}
// * * * * * * * * * * * * * * * * * * * * * * * * * * * * * * * * * * * * * //

dimensions      [0 3 -1 0 0 0 0];

internalField   nonuniform List<scalar> 
760
(
-9.17507e-06
9.17506e-06
-2.50878e-05
1.59127e-05
-4.28253e-05
1.77374e-05
-6.12968e-05
1.84715e-05
-8.04011e-05
1.91043e-05
-0.00010021
1.98093e-05
-0.000120726
2.05158e-05
-0.000141806
2.10796e-05
-0.000163093
2.12874e-05
-0.000183926
2.08333e-05
-0.000203223
1.92963e-05
-0.000219362
1.61394e-05
-0.000230112
1.07496e-05
-0.000232612
2.50055e-06
-0.000223497
-9.11555e-06
-0.00019955
-2.39469e-05
-0.000158916
-4.06341e-05
-0.00010333
-5.55856e-05
-4.15931e-05
-6.1737e-05
-4.15931e-05
-1.6945e-05
2.61201e-05
-4.36224e-05
4.25902e-05
-7.29282e-05
4.70432e-05
-0.000103084
4.86274e-05
-0.000133745
4.97656e-05
-0.000164813
5.08766e-05
-0.000196112
5.18157e-05
-0.00022729
5.22569e-05
-0.000257718
5.17152e-05
-0.000286388
4.95042e-05
-0.000311781
4.46888e-05
-0.000331678
3.60361e-05
-0.000343286
2.23574e-05
-0.00034321
2.42515e-06
-0.00032699
-2.53355e-05
-0.000290562
-6.03755e-05
-0.000231369
-9.98269e-05
-0.000151269
-0.000135685
-6.2277e-05
-0.000150729
-0.00010387
-1.91572e-05
4.52773e-05
-4.90992e-05
7.25322e-05
-8.18577e-05
7.98017e-05
-0.000115411
8.2181e-05
-0.000149374
8.37278e-05
-0.000183642
8.51447e-05
-0.000218061
8.62354e-05
-0.000252323
8.65184e-05
-0.000285875
8.52673e-05
-0.000317816
8.14447e-05
-0.000346757
7.36302e-05
-0.000370702
5.99811e-05
-0.000386668
3.83235e-05
-0.00039068
6.43658e-06
-0.000377619
-3.83962e-05
-0.000341628
-9.63659e-05
-0.000277624
-0.000163831
-0.000185072
-0.000228237
-7.72633e-05
-0.000258538
-0.000181133
-1.94142e-05
6.46915e-05
-5.00057e-05
0.000103124
-8.35005e-05
0.000113296
-0.000117837
0.000116518
-0.000152685
0.000118576
-0.000188039
0.000120499
-0.000223889
0.000122085
-0.000260126
0.000122756
-0.000296475
0.000121616
-0.000332375
0.000117345
-0.000366818
0.000108074
-0.000398102
9.12651e-05
-0.000423439
6.366e-05
-0.000438516
2.15139e-05
-0.000437049
-3.98638e-05
-0.00041003
-0.000123385
-0.000347395
-0.000226466
-0.000242119
-0.000333513
-0.000105005
-0.000395652
-0.000286138
-1.89731e-05
8.36646e-05
-4.93299e-05
0.000133481
-8.27045e-05
0.000146671
-0.000117035
0.000150849
-0.00015208
0.00015362
-0.000187984
0.000156403
-0.000224962
0.000159062
-0.000263216
0.00016101
-0.00030288
0.00016128
-0.000343926
0.000158391
-0.000385986
0.000150134
-0.000428042
0.000133321
-0.000467879
0.000103497
-0.000501161
5.47963e-05
-0.000521003
-2.00222e-05
-0.000514762
-0.000129625
-0.000464608
-0.00027662
-0.000349168
-0.000448953
-0.00016285
-0.00058197
-0.000448988
-1.82259e-05
0.00010189
-4.79833e-05
0.000163238
-8.08869e-05
0.000179575
-0.000114864
0.000184826
-0.000149765
0.00018852
-0.000185901
0.00019254
-0.000223747
0.000196908
-0.000263886
0.000201149
-0.000306993
0.000204387
-0.000353771
0.000205169
-0.000404828
0.000201191
-0.000460383
0.000188876
-0.000519699
0.000162814
-0.000580001
0.000115098
-0.00063519
3.51665e-05
-0.000671599
-9.32154e-05
-0.000659813
-0.000288407
-0.000544389
-0.000564376
-0.000273764
-0.000852596
-0.000722752
-1.72709e-05
0.000119161
-4.61839e-05
0.000192151
-7.83481e-05
0.000211739
-0.000111648
0.000218126
-0.000146004
0.000222876
-0.000181887
0.000228423
-0.00022003
0.000235051
-0.000261418
0.000242538
-0.000307341
0.00025031
-0.00035943
0.000257257
-0.000419651
0.000261412
-0.000490199
0.000259424
-0.000573173
0.000245788
-0.000669888
0.000211812
-0.000779023
0.000144301
-0.00089234
2.01017e-05
-0.000955365
-0.000225381
-0.000835119
-0.000684622
-0.000426764
-0.00126095
-0.00114952
-1.61353e-05
0.000135297
-4.39871e-05
0.000220003
-7.51326e-05
0.000242884
-0.000107363
0.000250357
-0.00014063
0.000256142
-0.000175522
0.000263316
-0.000212993
0.000272521
-0.00025439
0.000283935
-0.000301591
0.000297512
-0.000357201
0.000312867
-0.000424811
0.000329021
-0.000509345
0.000343958
-0.00061751
0.000353954
-0.000758292
0.000352594
-0.000939895
0.000325904
-0.00114522
0.000225428
-0.00127428
-9.63182e-05
-0.00108768
-0.000871226
-0.000546826
-0.00180181
-0.00169634
-1.48587e-05
0.000150155
-4.14702e-05
0.000246614
-7.1317e-05
0.000272731
-0.000102036
0.000281076
-0.000133536
0.000287642
-0.000166459
0.000296239
-0.00020188
0.000307942
-0.000241372
0.000323426
-0.000287217
0.000343357
-0.000342762
0.000368413
-0.000412989
0.000399248
-0.000505501
0.00043647
-0.000632103
0.000480555
-0.000809179
0.000529671
-0.00104759
0.000564312
-0.00130158
0.000479419
-0.00140628
8.38486e-06
-0.00113401
-0.0011435
-0.000632162
-0.00230365
-0.0023285
-1.35502e-05
0.000163705
-3.88466e-05
0.000271911
-6.71558e-05
0.00030104
-9.59086e-05
0.000309829
-0.000124899
0.000316632
-0.000154749
0.000326089
-0.00018653
0.000339723
-0.000221848
0.000358745
-0.000263091
0.000384599
-0.000313855
0.000419177
-0.000379652
0.000465045
-0.00046901
0.000525828
-0.000595398
0.000606943
-0.000773478
0.00070775
-0.00100282
0.000793659
-0.0012114
0.000688
-0.00126066
5.7638e-05
-0.00102625
-0.00137791
-0.000678566
-0.00265133
-0.00300707
-1.22455e-05
0.000175951
-3.62797e-05
0.000295945
-6.2955e-05
0.000327716
-8.94626e-05
0.000336336
-0.000115286
0.000342455
-0.0001409
0.000351703
-0.000167229
0.000366053
-0.000195569
0.000387084
-0.000227796
0.000416827
-0.000266776
0.000458157
-0.000317003
0.000515272
-0.000385049
0.000593873
-0.000481937
0.000703832
-0.000612973
0.000838786
-0.00077273
0.000953415
-0.000882027
0.000797296
-0.000896251
7.18627e-05
-0.000782615
-0.00149155
-0.000557136
-0.00287681
-0.00356421
-1.16661e-05
0.000187617
-3.49902e-05
0.000319269
-5.99581e-05
0.000352683
-8.35433e-05
0.000359922
-0.000105337
0.000364249
-0.00012579
0.000372156
-0.000145412
0.000385676
-0.000165027
0.000406699
-0.000185763
0.000437562
-0.000209059
0.000481453
-0.000237123
0.000543336
-0.000271197
0.000627947
-0.000315887
0.000748522
-0.000360153
0.000883052
-0.000413008
0.00100627
-0.000422095
0.000806383
-0.000414126
6.38932e-05
-0.000418183
-0.00148749
-0.000352142
-0.00294285
-0.00391635
-1.00448e-05
0.000197662
-3.28344e-05
0.000342059
-5.68192e-05
0.000376668
-7.92719e-05
0.000382374
-9.79193e-05
0.000382897
-0.000112996
0.000387232
-0.000124658
0.000397338
-0.000133314
0.000415355
-0.00013921
0.000443459
-0.000142162
0.000484404
-0.000141928
0.000543103
-0.00013464
0.000620659
-0.000118978
0.00073286
-8.43869e-05
0.000848461
-2.17646e-05
0.000943648
2.05314e-05
0.000764087
5.05967e-05
3.38279e-05
-7.92894e-05
-0.00135761
-0.000207513
-0.00281462
-0.00412386
-1.50877e-05
0.00021275
-4.05364e-05
0.000367507
-6.28149e-05
0.000398947
-7.88065e-05
0.000398366
-9.02487e-05
0.000394339
-9.78928e-05
0.000394876
-0.000101585
0.00040103
-0.000100805
0.000414575
-9.4594e-05
0.000437248
-8.11725e-05
0.000470983
-5.8104e-05
0.000520034
-2.04163e-05
0.000582972
4.19687e-05
0.000670475
0.000131296
0.000759133
0.00025723
0.000817715
0.000363666
0.000657651
0.000391495
5.9987e-06
0.000172787
-0.0011389
-6.93937e-05
-0.00257244
-0.00419326
-4.17171e-06
0.000216921
-3.06758e-05
0.000394011
-5.74522e-05
0.000425723
-8.11927e-05
0.000422106
-9.44043e-05
0.00040755
-9.92457e-05
0.000399718
-9.53176e-05
0.000397102
-8.33902e-05
0.000402647
-6.28643e-05
0.000416722
-3.18681e-05
0.000439987
1.30738e-05
0.000475092
7.52197e-05
0.000520826
0.000166537
0.000579158
0.000290182
0.000635489
0.000448932
0.000658964
0.000566329
0.000540255
0.000566815
5.51252e-06
0.000291252
-0.000863336
-1.00685e-06
-0.00228018
-0.00419426
-4.87285e-05
0.00026565
-7.49199e-05
0.000420203
-8.99695e-05
0.000440773
-9.27846e-05
0.000424921
-9.08707e-05
0.000405636
-8.49842e-05
0.000393831
-7.3796e-05
0.000385913
-5.59004e-05
0.000384752
-2.92347e-05
0.000390056
8.65219e-06
0.0004021
6.15792e-05
0.000422165
0.000132943
0.000449462
0.00022922
0.000482881
0.000347181
0.000517528
0.000496665
0.00050948
0.000584793
0.000452126
0.000584798
5.50811e-06
0.000291058
-0.000569597
1.02883e-05
-0.00199941
-0.00418397
1.46973e-05
0.000250952
-6.38497e-05
0.00049875
-0.000114119
0.000491042
-0.000135382
0.000446184
-0.000134191
0.000404445
-0.000121672
0.000381312
-9.91665e-05
0.000363408
-6.88108e-05
0.000354396
-2.91708e-05
0.000350416
2.1749e-05
0.00035118
8.75567e-05
0.000356358
0.00017145
0.000365568
0.000278741
0.00037559
0.000402668
0.000393602
0.000547656
0.000364491
0.000640281
0.000359501
0.000567469
7.83198e-05
0.000235211
-0.000237338
7.15105e-05
-0.00183571
-0.00411246
-3.59411e-05
0.000286894
6.40572e-06
0.000456403
1.29466e-06
0.000496153
-3.92292e-05
0.000486708
-5.91867e-05
0.000424403
-7.32627e-05
0.000395388
-7.22029e-05
0.000362348
-5.71376e-05
0.000339331
-2.78988e-05
0.000321178
1.71631e-05
0.000306118
7.73209e-05
0.0002962
0.000153568
0.000289321
0.000242716
0.000286443
0.000335455
0.000300862
0.000429494
0.000270453
0.000485588
0.000303406
0.000500358
6.35502e-05
0.000412143
-0.000149123
0.000343228
-0.0017668
-0.00376924
-0.000646872
0.000933766
-0.000690961
0.000500492
-0.00065084
0.000456032
-0.000540769
0.000376638
-0.000430441
0.000314074
-0.00030876
0.000273708
-0.000188153
0.000241741
-6.62956e-05
0.000217474
5.6572e-05
0.00019831
0.000180081
0.000182609
0.000305199
0.000171083
0.000434193
0.000160326
0.000571136
0.000149499
0.000722255
0.000149743
0.000883986
0.000108722
0.00107966
0.000107728
0.00121639
-7.31804e-05
0.00138961
-0.000322335
0.0010509
-0.00142809
-0.00271834
0.000933766
0.00143426
0.00189029
0.00226693
0.002581
0.00285471
0.00309645
0.00331392
0.00351223
0.00369484
0.00386592
0.00402625
0.00417575
0.00432549
0.00443422
0.00454194
0.00446876
0.00414643
0.00271834
)
;

boundaryField
{
    movingWall
    {
        type            calculated;
        value           uniform 0;
    }
    fixedWalls
    {
        type            calculated;
        value           uniform 0;
    }
    frontAndBack
    {
        type            empty;
        value           nonuniform List<scalar> 0();
    }
}


// ************************************************************************* //
