/*--------------------------------*- C++ -*----------------------------------*\
  =========                 |
  \\      /  F ield         | OpenFOAM: The Open Source CFD Toolbox
   \\    /   O peration     | Website:  https://openfoam.org
    \\  /    A nd           | Version:  9
     \\/     M anipulation  |
\*---------------------------------------------------------------------------*/
FoamFile
{
    format      ascii;
    class       volVectorField;
    location    "10";
    object      U;
}
// * * * * * * * * * * * * * * * * * * * * * * * * * * * * * * * * * * * * * //

dimensions      [0 1 -1 0 0 0 0];

internalField   nonuniform List<vector> 
400
(
(-0.000310427 0.000289156 0)
(-0.00157466 0.000561328 0)
(-0.00339907 0.000635722 0)
(-0.00519652 0.000670633 0)
(-0.00708052 0.000706566 0)
(-0.00902798 0.000750875 0)
(-0.0110481 0.000800258 0)
(-0.0131352 0.000848461 0)
(-0.0152648 0.000886204 0)
(-0.0173866 0.000899687 0)
(-0.0194144 0.00086936 0)
(-0.0212161 0.000770325 0)
(-0.0226018 0.000575844 0)
(-0.0233169 0.000253619 0)
(-0.0230434 -0.000231937 0)
(-0.0214428 -0.000874239 0)
(-0.0181953 -0.00161295 0)
(-0.0134092 -0.00228363 0)
(-0.00696813 -0.0025756 0)
(-0.00161213 -0.00170245 0)
(-0.000631183 0.0016025 0)
(-0.00282638 0.00269688 0)
(-0.00583451 0.00299471 0)
(-0.00879304 0.00311006 0)
(-0.0118455 0.00320335 0)
(-0.014938 0.00330239 0)
(-0.0180651 0.00339617 0)
(-0.0212025 0.00346149 0)
(-0.0243021 0.00346415 0)
(-0.0272829 0.00335568 0)
(-0.0300189 0.00307031 0)
(-0.0323251 0.00252449 0)
(-0.0339544 0.0016195 0)
(-0.0345986 0.000259291 0)
(-0.0338557 -0.00161981 0)
(-0.0312863 -0.00399326 0)
(-0.0264874 -0.00664604 0)
(-0.0195544 -0.00901584 0)
(-0.0103172 -0.00998123 0)
(-0.00248062 -0.00679029 0)
(-0.000716373 0.00357522 0)
(-0.00318992 0.00575696 0)
(-0.00655884 0.00634314 0)
(-0.00985767 0.00654171 0)
(-0.0132466 0.0066746 0)
(-0.0166645 0.00679729 0)
(-0.0201079 0.00689213 0)
(-0.0235555 0.00691793 0)
(-0.0269655 0.00681318 0)
(-0.0302665 0.00649105 0)
(-0.0333453 0.00583404 0)
(-0.0360336 0.00469196 0)
(-0.0380859 0.00288757 0)
(-0.039159 0.000245119 0)
(-0.0387986 -0.00335871 0)
(-0.0364469 -0.00793114 0)
(-0.0314799 -0.0131225 0)
(-0.0237345 -0.0179164 0)
(-0.0127837 -0.0200043 0)
(-0.00310779 -0.0138659 0)
(-0.000718222 0.00549663 0)
(-0.00324016 0.00877443 0)
(-0.0066874 0.0096438 0)
(-0.010059 0.0099218 0)
(-0.0135306 0.0100988 0)
(-0.0170447 0.0102604 0)
(-0.0206107 0.0103859 0)
(-0.0242247 0.0104208 0)
(-0.027869 0.0102815 0)
(-0.0315041 0.00984797 0)
(-0.0350539 0.00895382 0)
(-0.0383843 0.00737919 0)
(-0.0412743 0.00485463 0)
(-0.0433794 0.0010807 0)
(-0.0441859 -0.00421107 0)
(-0.0429313 -0.0111724 0)
(-0.0386025 -0.019453 0)
(-0.0304359 -0.0276202 0)
(-0.0172719 -0.0318039 0)
(-0.00434199 -0.0224954 0)
(-0.000689445 0.00741966 0)
(-0.00317929 0.0118252 0)
(-0.00661274 0.0129896 0)
(-0.00997484 0.0133566 0)
(-0.013454 0.0135936 0)
(-0.0170013 0.0138219 0)
(-0.020646 0.0140233 0)
(-0.0244102 0.0141378 0)
(-0.0283126 0.0140685 0)
(-0.0323615 0.0136711 0)
(-0.0365416 0.0127375 0)
(-0.0407892 0.0109766 0)
(-0.0449462 0.00799823 0)
(-0.0486926 0.00331632 0)
(-0.0515014 -0.00360007 0)
(-0.0524313 -0.0131856 0)
(-0.0499721 -0.0253945 0)
(-0.042309 -0.0386384 0)
(-0.02641 -0.0471739 0)
(-0.00708292 -0.0347459 0)
(-0.000646484 0.00928311 0)
(-0.00307028 0.0148351 0)
(-0.00645292 0.0163076 0)
(-0.00977058 0.016776 0)
(-0.0132223 0.0170946 0)
(-0.0167689 0.0174268 0)
(-0.0204617 0.0177654 0)
(-0.0243541 0.0180553 0)
(-0.0285101 0.018201 0)
(-0.0330012 0.01805 0)
(-0.0378982 0.0173689 0)
(-0.0432519 0.0158091 0)
(-0.0490462 0.0128638 0)
(-0.0551158 0.00782138 0)
(-0.0610347 -0.000230023 0)
(-0.0659099 -0.0122449 0)
(-0.0678765 -0.0291208 0)
(-0.0631422 -0.0501407 0)
(-0.0438814 -0.0683002 0)
(-0.0123212 -0.0544247 0)
(-0.000593396 0.0110597 0)
(-0.00292899 0.0177702 0)
(-0.00623524 0.0195628 0)
(-0.00947884 0.0201428 0)
(-0.0128668 0.0205615 0)
(-0.0163681 0.0210329 0)
(-0.0200551 0.0215702 0)
(-0.0240131 0.0221361 0)
(-0.0283553 0.022654 0)
(-0.0332284 0.0229893 0)
(-0.0388143 0.0229172 0)
(-0.0453278 0.0220727 0)
(-0.0529964 0.0198753 0)
(-0.0619962 0.0154346 0)
(-0.0723614 0.00746887 0)
(-0.0839114 -0.00584246 0)
(-0.0944633 -0.027304 0)
(-0.0953109 -0.0606873 0)
(-0.0687007 -0.0995246 0)
(-0.0186885 -0.0881438 0)
(-0.000531254 0.0127316 0)
(-0.00275996 0.0206102 0)
(-0.00596599 0.0227313 0)
(-0.00910201 0.0234245 0)
(-0.0123797 0.0239506 0)
(-0.015772 0.0245829 0)
(-0.0193676 0.0253658 0)
(-0.0232797 0.026294 0)
(-0.0276664 0.0273321 0)
(-0.0327479 0.0283983 0)
(-0.0388289 0.0293326 0)
(-0.0463293 0.0298417 0)
(-0.0558192 0.0294127 0)
(-0.0680656 0.0272059 0)
(-0.0841213 0.0218233 0)
(-0.104753 0.0100916 0)
(-0.125831 -0.0164729 0)
(-0.127647 -0.0738545 0)
(-0.0860833 -0.149134 0)
(-0.0245985 -0.138489 0)
(-0.000461899 0.0142818 0)
(-0.00256949 0.023333 0)
(-0.00565417 0.0257811 0)
(-0.00864634 0.0265744 0)
(-0.0117584 0.0271955 0)
(-0.01496 0.027986 0)
(-0.0183477 0.0290295 0)
(-0.0220505 0.0303654 0)
(-0.026255 0.032019 0)
(-0.0312325 0.0339946 0)
(-0.037382 0.0362573 0)
(-0.0453018 0.0387035 0)
(-0.0558994 0.0411224 0)
(-0.0705733 0.0430901 0)
(-0.0914456 0.0432086 0)
(-0.11938 0.0345905 0)
(-0.144648 -0.00293717 0)
(-0.135236 -0.100856 0)
(-0.0880907 -0.21092 0)
(-0.0353401 -0.199795 0)
(-0.000390563 0.0157041 0)
(-0.00237458 0.025938 0)
(-0.00532494 0.0287083 0)
(-0.00813799 0.0295772 0)
(-0.0110249 0.0302551 0)
(-0.0139447 0.0311656 0)
(-0.0169912 0.03244 0)
(-0.0202939 0.0341731 0)
(-0.0240426 0.0364715 0)
(-0.0285201 0.0394647 0)
(-0.0341518 0.0433135 0)
(-0.0415898 0.0482253 0)
(-0.051851 0.0544866 0)
(-0.0664373 0.062038 0)
(-0.0875628 0.0683258 0)
(-0.113879 0.0593327 0)
(-0.134532 0.00418182 0)
(-0.113768 -0.131716 0)
(-0.0895691 -0.25511 0)
(-0.0409221 -0.269519 0)
(-0.000317559 0.0169799 0)
(-0.00218322 0.0283591 0)
(-0.00500208 0.0313911 0)
(-0.00761817 0.0322574 0)
(-0.010236 0.032925 0)
(-0.0127843 0.0338906 0)
(-0.0153455 0.0353189 0)
(-0.0180261 0.0373522 0)
(-0.0209742 0.0401658 0)
(-0.0244111 0.0439946 0)
(-0.0286753 0.0491786 0)
(-0.0342716 0.0562006 0)
(-0.042088 0.0658559 0)
(-0.0530711 0.077957 0)
(-0.0686617 0.0882674 0)
(-0.0847999 0.0753472 0)
(-0.0984727 0.00613802 0)
(-0.0759978 -0.149332 0)
(-0.0814728 -0.282782 0)
(-0.0243119 -0.338787 0)
(-0.000278449 0.0182264 0)
(-0.00210442 0.0309163 0)
(-0.00481907 0.0342557 0)
(-0.00719541 0.0351482 0)
(-0.00946286 0.0356886 0)
(-0.0115545 0.0365342 0)
(-0.013528 0.0378947 0)
(-0.0154473 0.0399837 0)
(-0.0174042 0.0430438 0)
(-0.0195196 0.0473975 0)
(-0.0219822 0.0535316 0)
(-0.0248876 0.0620393 0)
(-0.028781 0.0741155 0)
(-0.0330615 0.0884504 0)
(-0.0396632 0.100635 0)
(-0.0408318 0.082252 0)
(-0.0488738 0.00759751 0)
(-0.0303602 -0.153121 0)
(-0.0543007 -0.297828 0)
(-0.0117366 -0.381341 0)
(-0.000165316 0.01918 0)
(-0.00189714 0.0327018 0)
(-0.00458023 0.0359944 0)
(-0.00684163 0.0364683 0)
(-0.00893455 0.0367814 0)
(-0.0105944 0.0375174 0)
(-0.0119121 0.0388793 0)
(-0.0129014 0.0410119 0)
(-0.0136033 0.0441307 0)
(-0.0140068 0.0485333 0)
(-0.0141949 0.0547282 0)
(-0.013656 0.0630637 0)
(-0.0132135 0.0749558 0)
(-0.00945158 0.0878624 0)
(-0.00856207 0.0991734 0)
(0.00490601 0.0798667 0)
(-0.00180549 0.00473174 0)
(0.0132134 -0.1433 0)
(-0.030227 -0.290207 0)
(-0.00785339 -0.404616 0)
(-0.000421511 0.0204523 0)
(-0.00265761 0.036077 0)
(-0.00535033 0.0397522 0)
(-0.0071797 0.0405821 0)
(-0.00851956 0.0403712 0)
(-0.00947206 0.0404908 0)
(-0.0100314 0.0410876 0)
(-0.0101815 0.0424842 0)
(-0.00985209 0.0449046 0)
(-0.00885821 0.0486209 0)
(-0.00730505 0.0541098 0)
(-0.00392697 0.0614207 0)
(-0.000357623 0.0719509 0)
(0.00928881 0.0828181 0)
(0.0158647 0.0915753 0)
(0.0371239 0.0746268 0)
(0.0316976 0.00297815 0)
(0.0503263 -0.123706 0)
(-0.018071 -0.268299 0)
(0.00624782 -0.416381 0)
(0.000382607 0.022424 0)
(-0.00127969 0.0369216 0)
(-0.00468692 0.0394537 0)
(-0.00697779 0.0381766 0)
(-0.00909019 0.0375847 0)
(-0.00984552 0.0375844 0)
(-0.0098895 0.0383097 0)
(-0.00907813 0.0397347 0)
(-0.00750158 0.0419836 0)
(-0.00489592 0.0451605 0)
(-0.00156836 0.049635 0)
(0.00431483 0.0552664 0)
(0.0103862 0.0626164 0)
(0.0238517 0.0698273 0)
(0.032611 0.0735762 0)
(0.0591936 0.059118 0)
(0.0495557 -0.00162805 0)
(0.0686725 -0.100354 0)
(-0.0139933 -0.239854 0)
(0.0140931 -0.416711 0)
(-0.00281341 0.0200898 0)
(-0.00677561 0.0425182 0)
(-0.00831378 0.0464679 0)
(-0.00945265 0.0476441 0)
(-0.00921888 0.045278 0)
(-0.008923 0.0436921 0)
(-0.00806049 0.0423094 0)
(-0.006643 0.0418587 0)
(-0.00451038 0.0422885 0)
(-0.00121682 0.0436784 0)
(0.0029096 0.0461991 0)
(0.00966246 0.0497311 0)
(0.0164584 0.0543585 0)
(0.030278 0.0587824 0)
(0.037561 0.0603353 0)
(0.0635014 0.051383 0)
(0.0500049 0.00313461 0)
(0.0715819 -0.0686953 0)
(-0.0176651 -0.212172 0)
(0.0206542 -0.423409 0)
(0.00380469 0.0349555 0)
(-0.00114964 0.0409614 0)
(-0.0110914 0.0407965 0)
(-0.0122939 0.0353154 0)
(-0.0142795 0.0339271 0)
(-0.012825 0.0331978 0)
(-0.0112927 0.033209 0)
(-0.0085563 0.0336355 0)
(-0.00517048 0.0344858 0)
(-0.000561289 0.0356931 0)
(0.00482672 0.0373579 0)
(0.0129772 0.0394537 0)
(0.0207566 0.0413479 0)
(0.0359463 0.0437399 0)
(0.042942 0.0396516 0)
(0.0682914 0.0366189 0)
(0.0562188 -0.00245751 0)
(0.0616568 -0.0483311 0)
(-0.0190616 -0.19266 0)
(0.0364769 -0.422988 0)
(-0.00394345 0.0121657 0)
(-0.00264025 0.0600663 0)
(0.00372781 0.0586468 0)
(-0.00339701 0.0567943 0)
(-0.00473376 0.0495412 0)
(-0.00710646 0.0455525 0)
(-0.00767129 0.0416557 0)
(-0.0068336 0.0391681 0)
(-0.00467697 0.0372612 0)
(-0.000815521 0.0359909 0)
(0.00418108 0.0352291 0)
(0.0114534 0.0348722 0)
(0.0188876 0.0351567 0)
(0.0300351 0.0366096 0)
(0.0360635 0.0355615 0)
(0.0505543 0.0380453 0)
(0.044766 0.0199005 0)
(0.0569622 0.00257949 0)
(0.018689 -0.171838 0)
(0.0590778 -0.407413 0)
(-0.0777592 0.0509467 0)
(-0.0563569 0.0285202 0)
(-0.077679 0.037944 0)
(-0.0550742 0.0365321 0)
(-0.0511879 0.0319373 0)
(-0.035938 0.0302952 0)
(-0.025231 0.0280522 0)
(-0.0126453 0.0262917 0)
(-0.000559413 0.0249177 0)
(0.0119959 0.0234682 0)
(0.0236992 0.0224205 0)
(0.0378473 0.0215434 0)
(0.0485097 0.0205704 0)
(0.0663971 0.0215502 0)
(0.0766096 0.0158739 0)
(0.102233 0.0188308 0)
(0.107586 -0.00972423 0)
(0.139947 -0.0368595 0)
(0.12198 -0.201651 0)
(0.109841 -0.376528 0)
(0.0836643 0.12374 0)
(0.113554 0.0747453 0)
(0.164785 0.0563488 0)
(0.211324 0.04237 0)
(0.241581 0.0338281 0)
(0.274818 0.0271425 0)
(0.295265 0.0225692 0)
(0.324429 0.0191671 0)
(0.337801 0.0164195 0)
(0.36532 0.0144945 0)
(0.372979 0.0130807 0)
(0.40084 0.0116631 0)
(0.403088 0.0104615 0)
(0.431542 0.0097972 0)
(0.428159 0.00746561 0)
(0.45608 0.00507665 0)
(0.436913 -0.0019623 0)
(0.447859 -0.0188618 0)
(0.356709 -0.0574111 0)
(0.229785 -0.121951 0)
)
;

boundaryField
{
    movingWall
    {
        type            fixedValue;
        value           uniform (1 0 0);
    }
    fixedWalls
    {
        type            noSlip;
    }
    frontAndBack
    {
        type            empty;
    }
}


// ************************************************************************* //
