/*--------------------------------*- C++ -*----------------------------------*\
  =========                 |
  \\      /  F ield         | OpenFOAM: The Open Source CFD Toolbox
   \\    /   O peration     | Website:  https://openfoam.org
    \\  /    A nd           | Version:  9
     \\/     M anipulation  |
\*---------------------------------------------------------------------------*/
FoamFile
{
    format      ascii;
    class       volScalarField;
    location    "8";
    object      p;
}
// * * * * * * * * * * * * * * * * * * * * * * * * * * * * * * * * * * * * * //

dimensions      [0 2 -2 0 0 0 0];

internalField   nonuniform List<scalar> 
8000
(
-1.51879e-08
1.60913e-06
4.74839e-05
0.000125492
0.00024002
0.000392592
0.000585753
0.000822195
0.00110432
0.00143373
0.00181054
0.00223243
0.00269338
0.0031822
0.00368128
0.00416557
0.00460368
0.00495505
0.00519822
0.00527021
-1.3988e-05
-8.97474e-06
3.79401e-05
0.000114883
0.000227379
0.00037713
0.000566869
0.000799471
0.00107761
0.00140328
0.00177719
0.00219766
0.00265921
0.00315151
0.0036581
0.00415441
0.0046079
0.00497511
0.00523254
0.00530836
-7.48e-05
-7.06879e-05
-2.52913e-05
4.84761e-05
0.000156688
0.000301211
0.000485125
0.000711795
0.00098461
0.00130654
0.00167954
0.0021036
0.00257563
0.00308731
0.00362315
0.00415796
0.0046568
0.00506923
0.00536352
0.00545386
-0.000172628
-0.000170001
-0.000127594
-5.89596e-05
4.24233e-05
0.000178609
0.000353139
0.000570062
0.000833804
0.00114888
0.0015193
0.00194763
0.00243369
0.00297227
0.00355065
0.00414544
0.00471813
0.00520893
0.00556914
0.00569233
-0.000310627
-0.000310188
-0.000272265
-0.000210843
-0.000119014
5.43009e-06
0.000166541
0.00036914
0.00061888
0.000922134
0.00128562
0.0017156
0.0022163
0.00278761
0.00342142
0.00409797
0.00477621
0.00538565
0.00584998
0.00603778
-0.000487312
-0.000489678
-0.000457687
-0.000405715
-0.000326522
-0.000217853
-7.5254e-05
0.000106802
0.000335164
0.000618145
0.000965479
0.00138795
0.00189618
0.00249794
0.00319355
0.00396602
0.00478302
0.00556397
0.00618795
0.0065004
-0.000700269
-0.000706043
-0.000681426
-0.00064127
-0.000578115
-0.000489864
-0.000371944
-0.000218435
-2.15893e-05
0.000228544
0.000544524
0.00094174
0.00143809
0.00205178
0.00279532
0.00366826
0.00465327
0.00566788
0.00652946
0.00707775
-0.000946386
-0.000956141
-0.000940245
-0.000914243
-0.000870634
-0.000807791
-0.000721462
-0.000605946
-0.000453377
-0.000252983
9.70219e-06
0.000353797
0.000804068
0.00139138
0.00214979
0.00310579
0.00424653
0.00554535
0.00672996
0.00770454
-0.00122186
-0.00123608
-0.00122997
-0.00122015
-0.00119932
-0.00116676
-0.00111913
-0.00105176
-0.000957835
-0.000827558
-0.000646797
-0.00039529
-4.46773e-05
0.000444359
0.00112461
0.00205798
0.00330032
0.00484465
0.00643285
0.00809734
-0.00152241
-0.00154138
-0.00154552
-0.0015532
-0.00155756
-0.00155928
-0.00155672
-0.00154718
-0.00152635
-0.00148754
-0.00142039
-0.00130898
-0.0011286
-0.000840581
-0.000386673
0.000317693
0.00140411
0.00300068
0.00472288
0.00704711
-0.0018437
-0.00186761
-0.00188161
-0.00190705
-0.00193739
-0.00197558
-0.00202243
-0.00207822
-0.00214288
-0.00221548
-0.00229363
-0.00237218
-0.00244159
-0.00248219
-0.00246104
-0.00231767
-0.00191441
-0.000839801
0.000868782
0.00501939
-0.00218142
-0.00220889
-0.00222969
-0.00227038
-0.00232496
-0.00239947
-0.00249682
-0.00262127
-0.00277794
-0.0029735
-0.00321715
-0.00352065
-0.00390253
-0.00437995
-0.00497953
-0.00565127
-0.00630067
-0.00536139
-0.00204285
0.00345525
-0.00253778
-0.00257447
-0.00260036
-0.00265856
-0.00273198
-0.00283658
-0.00297708
-0.00316372
-0.0034085
-0.00372793
-0.00414618
-0.00469366
-0.00543054
-0.00640759
-0.00774089
-0.00928313
-0.0111437
-0.0102887
-0.00622724
-0.000922514
-0.00289941
-0.00292209
-0.00293658
-0.00298451
-0.00306716
-0.00319867
-0.00338455
-0.00363505
-0.00396481
-0.00439474
-0.00496606
-0.00571622
-0.00677571
-0.00817108
-0.0102945
-0.0126456
-0.0165536
-0.0173802
-0.014953
-0.00862213
-0.00329078
-0.00336593
-0.00336636
-0.00345955
-0.00353401
-0.00367079
-0.0038584
-0.0041256
-0.00449314
-0.00498635
-0.00566844
-0.00654847
-0.00786976
-0.00954869
-0.0125097
-0.015276
-0.0219894
-0.0244725
-0.0245936
-0.014326
-0.00382131
-0.00369572
-0.00363936
-0.00359099
-0.00364213
-0.0037813
-0.00401016
-0.00433285
-0.0047674
-0.0053197
-0.00607262
-0.00702949
-0.00845364
-0.0101795
-0.0133496
-0.0164846
-0.0241928
-0.0264874
-0.0278829
-0.0144512
-0.00398596
-0.0043884
-0.0042299
-0.00443272
-0.00438753
-0.00449063
-0.0046159
-0.00485353
-0.00521303
-0.00570207
-0.00640518
-0.0072952
-0.00866625
-0.0102158
-0.0131577
-0.0158208
-0.022012
-0.0236777
-0.023293
-0.00549527
-0.00596547
-0.00454878
-0.0043744
-0.00392235
-0.00387
-0.0039582
-0.00419658
-0.00452908
-0.00499526
-0.00553559
-0.00627779
-0.0071093
-0.00834856
-0.00956796
-0.0117306
-0.0129868
-0.0161713
-0.0153136
-0.0123771
0.0143018
-0.00437191
-0.00672154
-0.00569834
-0.00603081
-0.00554283
-0.00546281
-0.00536685
-0.00543745
-0.00567383
-0.00602431
-0.00661123
-0.00730121
-0.00845601
-0.00954332
-0.0118648
-0.0129077
-0.0160741
-0.0109675
-0.00208915
0.0423079
-0.0176386
-0.00504065
-0.00432765
-0.00378616
-0.00358673
-0.00363233
-0.00392501
-0.00422988
-0.00474564
-0.00518543
-0.00600059
-0.00668329
-0.00792058
-0.00874763
-0.0101387
-0.0091635
-0.00628433
0.010532
0.0423856
0.118222
-1.84725e-06
-1.0835e-06
4.54539e-05
0.000123416
0.000238177
0.000391124
0.000584836
0.00082208
0.00110537
0.00143641
0.00181552
0.00224052
0.00270546
0.00319937
0.00370477
0.00419618
0.00464134
0.00499737
0.00524279
0.00530548
-6.58657e-06
-5.31689e-06
4.21563e-05
0.000118949
0.00023146
0.00038122
0.000571003
0.000803757
0.00108226
0.00140861
0.0017837
0.00220611
0.00267046
0.00316666
0.00367886
0.00418166
0.00464198
0.005014
0.00527427
0.00534097
-6.48084e-05
-6.55763e-05
-1.98438e-05
5.36349e-05
0.000161787
0.000306249
0.000490133
0.000716872
0.00098997
0.00131258
0.00168682
0.00211294
0.00258823
0.00310472
0.00364731
0.00419056
0.00469868
0.00511835
0.00541739
0.00549853
-0.000160945
-0.000163594
-0.000120889
-5.25986e-05
4.86915e-05
0.000184786
0.000359262
0.000576233
0.000840248
0.00115602
0.00152784
0.00195863
0.00244857
0.00299284
0.0035807
0.00418731
0.00477396
0.00527742
0.00564584
0.0057624
-0.000298071
-0.000303173
-0.000264939
-0.000203858
-0.000112083
1.23335e-05
0.00017348
0.00037626
0.000626463
0.000930686
0.001296
0.00172916
0.00223498
0.00281308
0.00346128
0.00415534
0.00485567
0.00548852
0.00597114
0.00616485
-0.000474139
-0.000482307
-0.000449972
-0.000398315
-0.000319115
-0.000210375
-6.75918e-05
0.000114851
0.000343966
0.000628332
0.000978132
0.0014049
0.00192054
0.0025356
0.00324521
0.00404615
0.00490003
0.00572599
0.00639294
0.00675265
-0.000686523
-0.000698395
-0.000673399
-0.000633535
-0.000570321
-0.000481909
-0.000363659
-0.000209539
-1.1621e-05
0.000240373
0.000559554
0.000962254
0.00146795
0.00209702
0.00286437
0.00378185
0.00482706
0.00592784
0.00688349
0.00762349
-0.000932045
-0.000948258
-0.000931964
-0.000906253
-0.000862565
-0.00079951
-0.000712749
-0.000596448
-0.000442511
-0.000239796
2.68074e-05
0.000377594
0.000839489
0.00144727
0.00224191
0.00324778
0.00449351
0.00594808
0.00735335
0.00890453
-0.00120688
-0.00122798
-0.00122148
-0.001212
-0.00119113
-0.00115837
-0.00111028
-0.00104204
-0.000946603
-0.000813739
-0.000628587
-0.000369634
-6.2312e-06
0.000505557
0.00122559
0.00222786
0.00359851
0.00542636
0.00744949
0.0104411
-0.00150669
-0.00153301
-0.00153678
-0.00154487
-0.00154931
-0.00155096
-0.00154804
-0.00153769
-0.00151535
-0.00147392
-0.00140242
-0.00128383
-0.00109161
-0.000783996
-0.000298113
0.000456126
0.00165425
0.00347163
0.00540923
0.00971728
-0.00182711
-0.00185917
-0.00187304
-0.00189915
-0.00192976
-0.00196795
-0.00201455
-0.00206975
-0.00213318
-0.00220367
-0.00227851
-0.00235251
-0.00241669
-0.00245547
-0.00245368
-0.00239979
-0.00213558
-0.00115435
-0.000457087
0.00536637
-0.0021628
-0.00219845
-0.00221905
-0.00226025
-0.00231576
-0.00239101
-0.00248883
-0.00261319
-0.00276906
-0.002963
-0.00320422
-0.00350663
-0.00389383
-0.00440513
-0.00513297
-0.00620375
-0.0075689
-0.0076147
-0.00664655
-9.1997e-05
-0.00251806
-0.00256605
-0.0025925
-0.00265238
-0.0027272
-0.00283236
-0.00297305
-0.00315939
-0.00340359
-0.00372217
-0.00413984
-0.00469402
-0.00545247
-0.00651157
-0.00808279
-0.0103287
-0.0135024
-0.0144853
-0.0132178
-0.00704858
-0.00287047
-0.00290401
-0.00291921
-0.00296723
-0.00305273
-0.00318603
-0.00337392
-0.00362575
-0.00395589
-0.0043865
-0.00495541
-0.00571656
-0.00679494
-0.00830243
-0.0107185
-0.0139124
-0.0193573
-0.0218671
-0.0227384
-0.0152969
-0.00325185
-0.00335088
-0.00335377
-0.00345155
-0.00353027
-0.00366816
-0.00385662
-0.00412355
-0.00448888
-0.00498244
-0.00565281
-0.0065498
-0.00787736
-0.00961815
-0.0128296
-0.0163753
-0.0242975
-0.0273469
-0.0310429
-0.0198946
-0.00375759
-0.00366062
-0.00360616
-0.00355024
-0.00360847
-0.00375212
-0.0039857
-0.00431227
-0.0047453
-0.00530343
-0.00604537
-0.00698513
-0.00842925
-0.010069
-0.0135459
-0.0169792
-0.0250543
-0.0275214
-0.0321287
-0.0177024
-0.00375559
-0.00425449
-0.00417306
-0.00440195
-0.00437305
-0.00447678
-0.00460262
-0.00484166
-0.00519228
-0.00568439
-0.00636917
-0.00719419
-0.00858294
-0.0100634
-0.0130574
-0.0159731
-0.0220232
-0.0242265
-0.0262415
-0.00649498
-0.00583125
-0.00454415
-0.00432782
-0.00376506
-0.00373173
-0.00384372
-0.00410195
-0.00446175
-0.00492597
-0.00547778
-0.00620406
-0.00699465
-0.00817081
-0.00938601
-0.0114207
-0.0129599
-0.0158758
-0.015881
-0.0135451
0.0147515
-0.00284716
-0.00599828
-0.00528849
-0.00579204
-0.00536426
-0.00536566
-0.00528827
-0.00541861
-0.00563611
-0.00600255
-0.0065466
-0.00719488
-0.00824129
-0.00933401
-0.0115344
-0.013051
-0.0163461
-0.0126511
-0.00306023
0.0445261
-0.0170099
-0.0043308
-0.00353397
-0.0032441
-0.00320878
-0.0033296
-0.00364992
-0.00402654
-0.00452954
-0.00501617
-0.00577762
-0.00649151
-0.00756377
-0.00855566
-0.00965941
-0.00905837
-0.0060838
0.0107994
0.0486335
0.134251
1.30539e-06
1.45757e-06
4.85233e-05
0.000126725
0.0002419
0.000395444
0.000590026
0.000828527
0.0011136
0.00144714
0.00182964
0.00225919
0.00273008
0.0032314
0.00374553
0.00424651
0.00470113
0.00506458
0.00531478
0.00537499
1.5172e-08
-9.10263e-08
4.77847e-05
0.000124661
0.000237427
0.000387583
0.000577997
0.000811724
0.00109168
0.00142017
0.00179833
0.00222499
0.00269502
0.00319866
0.00371996
0.00423307
0.00470393
0.00508455
0.00535073
0.00541537
-5.64696e-05
-5.91063e-05
-1.31262e-05
6.03135e-05
0.000168641
0.000313433
0.000497895
0.000725579
0.00100015
0.00132498
0.00170252
0.00213335
0.00261519
0.00314051
0.00369418
0.00425049
0.00477256
0.00520444
0.00551231
0.00559269
-0.000151156
-0.000155912
-0.000113022
-4.48484e-05
5.65654e-05
0.000192952
0.000367989
0.000585926
0.000851503
0.00116971
0.00154521
0.00198144
0.0024792
0.00303446
0.00363658
0.00426088
0.00486761
0.00539014
0.00577279
0.00589275
-0.000287232
-0.000294599
-0.000256195
-0.000195265
-0.000103377
2.13395e-05
0.000183087
0.000386926
0.000638876
0.000945871
0.00131547
0.00175515
0.00227078
0.0028641
0.00352984
0.0042484
0.0049784
0.00564239
0.00614967
0.00635701
-0.000462365
-0.000472932
-0.000440421
-0.000388936
-0.000309629
-0.000200579
-5.7152e-05
0.000126444
0.00035749
0.000644969
0.000999663
0.00143398
0.00196088
0.00259161
0.00332747
0.00416341
0.00506167
0.00593873
0.006651
0.00704688
-0.000673788
-0.00068819
-0.000663006
-0.000623347
-0.000560058
-0.000471364
-0.000352481
-0.000197186
2.74449e-06
0.00025805
0.000582564
0.000993754
0.00151286
0.00216281
0.00296301
0.00392542
0.00503509
0.0062188
0.00725465
0.00808929
-0.000918228
-0.000937109
-0.000920628
-0.000895186
-0.000851507
-0.000788269
-0.000700988
-0.000583637
-0.000427821
-0.000221923
4.99261e-05
0.000409245
0.000884935
0.00151455
0.00234336
0.00340636
0.00474176
0.00632154
0.00787004
0.0095821
-0.00119172
-0.00121567
-0.00120902
-0.00119992
-0.00117922
-0.00114647
-0.00109812
-0.00102916
-0.000932303
-0.000796917
-0.000607471
-0.000341349
3.40856e-05
0.000566196
0.00131851
0.00236453
0.00384479
0.00584926
0.00808292
0.0111882
-0.00148972
-0.00151913
-0.00152282
-0.00153146
-0.00153633
-0.00153832
-0.00153555
-0.00152505
-0.00150211
-0.00145939
-0.00138561
-0.00126337
-0.0010652
-0.000747533
-0.000245337
0.000536805
0.00177248
0.00373276
0.00583826
0.0103678
-0.00180769
-0.00184329
-0.00185726
-0.00188424
-0.00191561
-0.00195454
-0.00200179
-0.00205761
-0.00212162
-0.00219273
-0.00226864
-0.00234509
-0.00241449
-0.00246465
-0.00249233
-0.00251248
-0.00233597
-0.00119078
6.42885e-05
0.00577982
-0.00213942
-0.00217888
-0.00219971
-0.00224196
-0.00229878
-0.00237543
-0.00247475
-0.00260065
-0.00275832
-0.00295472
-0.00320018
-0.00351097
-0.00391503
-0.00446313
-0.00527316
-0.00651478
-0.00819752
-0.00827351
-0.00699963
-0.00115797
-0.00248959
-0.00254251
-0.00256963
-0.00263128
-0.00270809
-0.00281527
-0.00295805
-0.00314668
-0.00339362
-0.0037163
-0.00414058
-0.00470822
-0.00549282
-0.00661085
-0.00831463
-0.0108622
-0.0146222
-0.0160109
-0.0153021
-0.00935018
-0.00283226
-0.00287186
-0.00288818
-0.00293784
-0.00302589
-0.0031617
-0.00335247
-0.00360733
-0.00394084
-0.00437598
-0.00495056
-0.00572501
-0.00682503
-0.00839686
-0.0109374
-0.0143902
-0.0203224
-0.0230814
-0.0244672
-0.0168114
-0.00319647
-0.00330407
-0.00330979
-0.00341088
-0.0034945
-0.00363632
-0.00382846
-0.00409882
-0.00446713
-0.00496421
-0.00563518
-0.00654104
-0.00786575
-0.00965008
-0.012865
-0.0165022
-0.024175
-0.0270607
-0.0298316
-0.0202043
-0.00369017
-0.00360615
-0.00355342
-0.00349681
-0.00355808
-0.00370474
-0.00394215
-0.00427267
-0.0047082
-0.00526942
-0.00600512
-0.00694934
-0.00834588
-0.0100091
-0.0134128
-0.0166598
-0.0238986
-0.0261255
-0.0294346
-0.0171378
-0.00358657
-0.00411793
-0.00406738
-0.00430673
-0.00429129
-0.00440209
-0.00453393
-0.00477883
-0.00513216
-0.0056273
-0.00630212
-0.00713474
-0.00845369
-0.00992812
-0.0127455
-0.0156078
-0.0206834
-0.0223656
-0.0232749
-0.00558803
-0.00576041
-0.00449333
-0.00425486
-0.00364682
-0.00361136
-0.00372871
-0.00399318
-0.00436577
-0.00483465
-0.00539735
-0.00610477
-0.00689694
-0.00801073
-0.00923948
-0.011041
-0.0126452
-0.0148656
-0.0146764
-0.0112147
0.015512
-0.00237538
-0.00559815
-0.00500482
-0.00553902
-0.00512652
-0.00515965
-0.0050886
-0.0052434
-0.00546788
-0.00583599
-0.00639373
-0.00703609
-0.00802234
-0.00919214
-0.0111785
-0.0129076
-0.0159345
-0.0122477
-0.00204881
0.045444
-0.0168992
-0.00410351
-0.00325453
-0.00301178
-0.00298237
-0.00312577
-0.00343789
-0.00385479
-0.00433928
-0.00485331
-0.00558704
-0.00632242
-0.00729346
-0.00834344
-0.0092587
-0.00870036
-0.00547512
0.0117323
0.0508288
0.137521
6.11381e-06
5.69504e-06
5.30391e-05
0.000131489
0.000247186
0.000401533
0.000597295
0.000837484
0.00112492
0.00146172
0.0018486
0.00228389
0.00276208
0.00327237
0.00379701
0.00430947
0.00477551
0.00514833
0.005405
0.00546508
6.4541e-06
5.65958e-06
5.37997e-05
0.000130868
0.000244074
0.000394919
0.000586373
0.000821626
0.00110377
0.00143535
0.00181775
0.00225009
0.0027275
0.00324049
0.00377296
0.00429861
0.00478228
0.00517376
0.00544773
0.00551291
-4.89132e-05
-5.24191e-05
-6.2486e-06
6.7311e-05
0.000176032
0.000321477
0.000506959
0.000736179
0.00101301
0.00134109
0.00172318
0.0021603
0.00265057
0.00318686
0.00375407
0.00432618
0.00486505
0.00531209
0.0056313
0.00571396
-0.000142479
-0.000148202
-0.00010516
-3.69191e-05
6.48521e-05
0.000201868
0.000377925
0.000597441
0.000865394
0.0011871
0.00156768
0.00201109
0.0025188
0.00308754
0.00370711
0.00435274
0.00498354
0.00552926
0.00592995
0.00605645
-0.00027763
-0.000286047
-0.000247509
-0.000186544
-9.43133e-05
3.10337e-05
0.000193834
0.000399339
0.000653854
0.000964716
0.00134005
0.0017881
0.00231566
0.00292565
0.00361452
0.00436276
0.00512816
0.00582955
0.00636764
0.00659174
-0.000451892
-0.000463592
-0.00043096
-0.00037947
-0.000299841
-0.000190169
-4.56729e-05
0.000139655
0.00037342
0.00066509
0.00102615
0.00146998
0.00201074
0.00265976
0.00342775
0.00430495
0.00525552
0.00619299
0.00696072
0.00739487
-0.000662392
-0.000678028
-0.000652742
-0.000613127
-0.000549566
-0.000460305
-0.000340408
-0.000183421
1.92272e-05
0.000278819
0.000610023
0.00103162
0.00156696
0.00224318
0.0030769
0.00409341
0.00527797
0.00655704
0.00769208
0.00861554
-0.000905765
-0.000926007
-0.000909462
-0.00088415
-0.000840303
-0.000776633
-0.000688509
-0.000569692
-0.000411448
-0.000201621
7.65145e-05
0.000445856
0.000937456
0.0015916
0.00245263
0.00358559
0.00501954
0.00673919
0.00846235
0.0103196
-0.00117794
-0.0012034
-0.00119676
-0.00118792
-0.00116723
-0.00113429
-0.00108542
-0.00101547
-0.000916878
-0.000778635
-0.000584537
-0.000310852
7.70626e-05
0.000630545
0.00142213
0.00251403
0.00409243
0.00626034
0.0087552
0.0120202
-0.0014742
-0.0015053
-0.00150909
-0.00151819
-0.00152333
-0.00152548
-0.00152268
-0.00151192
-0.00148837
-0.00144464
-0.00136933
-0.00124489
-0.00104365
-0.000721729
-0.000215122
0.000564463
0.00180045
0.00381537
0.00624432
0.0108589
-0.00178979
-0.00182734
-0.00184161
-0.00186933
-0.00190131
-0.00194082
-0.00198865
-0.00204514
-0.00211008
-0.00218283
-0.00226193
-0.00234499
-0.00242833
-0.002508
-0.0026009
-0.00275992
-0.0028194
-0.00191464
-0.000236079
0.00523418
-0.00211787
-0.00215947
-0.00218075
-0.00222397
-0.00228181
-0.00235962
-0.00246027
-0.00258783
-0.00274795
-0.00294854
-0.00320192
-0.00352909
-0.00396783
-0.00459025
-0.00556302
-0.00714777
-0.00939552
-0.0100175
-0.00873491
-0.00312038
-0.00246308
-0.00251874
-0.00254674
-0.00261007
-0.0026885
-0.00279741
-0.0029421
-0.00313316
-0.00338374
-0.00371277
-0.00414942
-0.00474231
-0.00557767
-0.00680039
-0.00871696
-0.0116636
-0.0163054
-0.0183516
-0.0182065
-0.0119793
-0.00279723
-0.00284036
-0.00285788
-0.00290916
-0.00299902
-0.00313683
-0.00333002
-0.00358789
-0.00392559
-0.00436751
-0.00495425
-0.00575273
-0.0068995
-0.00856402
-0.0113176
-0.0150602
-0.0218579
-0.0247968
-0.0270713
-0.0191478
-0.00314747
-0.0032602
-0.00326859
-0.00337339
-0.00346052
-0.00360546
-0.00380043
-0.00407359
-0.00444497
-0.00494664
-0.00562391
-0.00654394
-0.00789208
-0.0097151
-0.0130506
-0.0167709
-0.0248469
-0.0274195
-0.0310866
-0.0213548
-0.00362555
-0.00354998
-0.00350042
-0.00344581
-0.00350888
-0.00365781
-0.00389784
-0.00423109
-0.00466883
-0.00523261
-0.00596753
-0.00691281
-0.00830204
-0.0099504
-0.0132815
-0.0165986
-0.0235693
-0.025459
-0.0296233
-0.0169035
-0.00347131
-0.0040194
-0.00398047
-0.00423174
-0.0042242
-0.00434078
-0.00447637
-0.00472389
-0.00507781
-0.00557232
-0.00624079
-0.00706323
-0.00835338
-0.00980083
-0.0125201
-0.0152814
-0.0200317
-0.0212253
-0.0226696
-0.00456506
-0.00563521
-0.00440626
-0.00416156
-0.00355246
-0.00351369
-0.00363317
-0.00390049
-0.00427793
-0.0047482
-0.00531243
-0.00600984
-0.00679026
-0.00786847
-0.00907515
-0.0107599
-0.0123042
-0.0142489
-0.0137372
-0.010606
0.0168217
-0.00208468
-0.00543349
-0.00484844
-0.00541054
-0.00499704
-0.00504104
-0.00497323
-0.00513201
-0.00536086
-0.00572479
-0.00628283
-0.00690588
-0.00786287
-0.00902976
-0.0109416
-0.0126896
-0.0156755
-0.0117962
-0.00219831
0.0470488
-0.0167027
-0.00389236
-0.00301315
-0.00279019
-0.00278189
-0.00294454
-0.00326538
-0.00369835
-0.00418904
-0.00470486
-0.00544367
-0.00616674
-0.00710571
-0.008139
-0.008988
-0.00832725
-0.00511526
0.0128134
0.0516566
0.140866
1.14746e-05
1.09287e-05
5.85589e-05
0.000137385
0.000253728
0.000409029
0.000606169
0.000848303
0.00113843
0.00147888
0.00187062
0.0023122
0.00279834
0.00331826
0.00385405
0.00437865
0.00485675
0.00523976
0.00550368
0.00556505
1.24821e-05
1.14803e-05
5.98913e-05
0.000137303
0.000251123
0.000402886
0.000595676
0.00083283
0.00111763
0.00145286
0.00184015
0.0022789
0.0027645
0.00328767
0.00383213
0.00437108
0.00486827
0.00527144
0.00555388
0.00562095
-4.22178e-05
-4.60032e-05
4.03572e-07
7.42686e-05
0.000183578
0.00032993
0.000516758
0.000747924
0.00102751
0.00135944
0.00174681
0.00219103
0.0026906
0.00323871
0.00382029
0.00440889
0.00496514
0.00542794
0.00575891
0.00584489
-0.00013501
-0.000141061
-9.78084e-05
-2.92968e-05
7.30406e-05
0.000210954
0.000388375
0.000609902
0.000880768
0.00120663
0.00159304
0.00204449
0.00256307
0.00314618
0.00378389
0.00445133
0.00510628
0.00567509
0.00609358
0.00622641
-0.000269426
-0.000278212
-0.000239484
-0.000178279
-8.55025e-05
4.07339e-05
0.000204918
0.000412511
0.000670114
0.000985478
0.00136729
0.00182454
0.0023649
0.00299247
0.00370477
0.00448248
0.00528226
0.00601905
0.00658563
0.00682244
-0.000442937
-0.000455051
-0.00042225
-0.000370559
-0.00029042
-0.000179893
-3.40295e-05
0.000153406
0.000390358
0.000686781
0.00105486
0.00150895
0.00206457
0.00273492
0.00353228
0.00444877
0.00544818
0.00644003
0.00725555
0.00771402
-0.000652617
-0.000668716
-0.000643295
-0.000603541
-0.000539543
-0.000449518
-0.000328359
-0.00016938
3.63503e-05
0.000300647
0.000638983
0.00107134
0.00162283
0.00232273
0.00319147
0.00425795
0.00550975
0.00687122
0.00808765
0.00905577
-0.000895024
-0.00091579
-0.000899165
-0.000873811
-0.000829659
-0.0007654
-0.000676252
-0.000555768
-0.000394882
-0.000180926
0.000103632
0.000482953
0.000990049
0.00166811
0.002566
0.00375526
0.00527295
0.0071097
0.00896993
0.0108751
-0.00116599
-0.00119205
-0.0011854
-0.00117667
-0.00115588
-0.00112262
-0.00107313
-0.00100209
-0.00090175
-0.000760721
-0.000562239
-0.000281626
0.000117379
0.000688849
0.00150853
0.0026457
0.00430412
0.00660654
0.00931233
0.0125621
-0.00146064
-0.00149241
-0.00149631
-0.00150571
-0.00151101
-0.00151323
-0.00151037
-0.00149938
-0.0014754
-0.00143102
-0.00135483
-0.0012293
-0.00102677
-0.000703438
-0.000196922
0.000577306
0.00180346
0.00386411
0.00661644
0.0110986
-0.00177402
-0.00181235
-0.0018269
-0.00185518
-0.00188765
-0.00192768
-0.00197611
-0.00203342
-0.00209962
-0.00217458
-0.00225781
-0.00234873
-0.00244689
-0.00255479
-0.00270516
-0.00298285
-0.00325618
-0.00244912
-0.000275494
0.00498577
-0.00209885
-0.00214133
-0.00216304
-0.00220704
-0.0022657
-0.00234451
-0.00244646
-0.00257585
-0.00273885
-0.00294437
-0.00320666
-0.00355051
-0.00402132
-0.00470546
-0.00580094
-0.0076367
-0.0104237
-0.0113364
-0.00972163
-0.00393425
-0.00243962
-0.00249635
-0.00252505
-0.00258964
-0.00266935
-0.00277978
-0.00292634
-0.00312
-0.00337468
-0.00371073
-0.00415994
-0.00477653
-0.00565803
-0.00696987
-0.00907437
-0.0123452
-0.0177618
-0.0200551
-0.0199612
-0.0131068
-0.00276704
-0.00281174
-0.00283021
-0.00288284
-0.002974
-0.00311341
-0.00330867
-0.0035694
-0.00391142
-0.00436038
-0.00495932
-0.00578058
-0.00697261
-0.00871697
-0.0116682
-0.015633
-0.0231666
-0.0258871
-0.0280274
-0.0198528
-0.0031074
-0.00322193
-0.00323156
-0.00333889
-0.00342812
-0.00357536
-0.00377253
-0.00404817
-0.00442264
-0.00492876
-0.00561359
-0.00654634
-0.00792255
-0.00977354
-0.0132494
-0.0169745
-0.0254489
-0.0273989
-0.0305261
-0.0214692
-0.0035738
-0.00350188
-0.00345415
-0.00340202
-0.00346602
-0.00361635
-0.00385784
-0.00419273
-0.00463204
-0.00519727
-0.00593311
-0.00687795
-0.00826956
-0.00990117
-0.0132286
-0.0165009
-0.0232197
-0.0246121
-0.0281904
-0.0165365
-0.00340161
-0.00395407
-0.00391365
-0.00417151
-0.00416679
-0.00428668
-0.00442397
-0.00467227
-0.00502608
-0.00551849
-0.00618269
-0.00699594
-0.00826863
-0.00968936
-0.0123275
-0.0149733
-0.0193979
-0.0200402
-0.0210519
-0.00374955
-0.00554285
-0.00433185
-0.00408599
-0.00348384
-0.00344214
-0.00356173
-0.00382883
-0.00420675
-0.00467635
-0.00523839
-0.00592931
-0.00669782
-0.00775126
-0.00892108
-0.0105174
-0.0119539
-0.0136266
-0.0127716
-0.00942328
0.017699
-0.00197799
-0.00535306
-0.00476038
-0.0053306
-0.00491353
-0.00495764
-0.00488925
-0.00504344
-0.00527282
-0.00562976
-0.00618664
-0.00679607
-0.0077345
-0.00888444
-0.0107433
-0.0124532
-0.0153056
-0.0111787
-0.00148896
0.0479562
-0.0166148
-0.00379684
-0.0028984
-0.00267461
-0.0026707
-0.00283629
-0.00315803
-0.00359278
-0.00408529
-0.00459729
-0.00533621
-0.0060493
-0.00696695
-0.00798208
-0.00876712
-0.00801805
-0.0046284
0.0135827
0.0525722
0.142302
1.66883e-05
1.61556e-05
6.4058e-05
0.00014331
0.000260351
0.00041668
0.000615287
0.000859464
0.00115239
0.00149659
0.00189324
0.00234114
0.00283517
0.00336459
0.00391132
0.00444771
0.00493751
0.00533046
0.00560147
0.00566449
1.79862e-05
1.69768e-05
6.5656e-05
0.000143484
0.000257991
0.000410769
0.000605013
0.000844203
0.0011318
0.00147081
0.00186311
0.00230832
0.00280206
0.00333532
0.00389152
0.00444336
0.00495356
0.00536801
0.00565861
0.00572781
-3.62899e-05
-4.01043e-05
6.55645e-06
8.08205e-05
0.00019081
0.000338177
0.000526479
0.000759733
0.00104223
0.00137815
0.00177091
0.0022223
0.00273118
0.00329078
0.00388623
0.00449059
0.00506331
0.00554094
0.0058829
0.00597206
-0.000128543
-0.000134642
-9.11493e-05
-2.2258e-05
8.07463e-05
0.000219675
0.000398593
0.000622279
0.000896208
0.00122636
0.00161869
0.0020782
0.0026075
0.00320449
0.0038595
0.00454743
0.00522477
0.00581473
0.0062493
0.00638736
-0.000262387
-0.000271241
-0.00023229
-0.000170729
-7.73054e-05
4.99353e-05
0.000215631
0.000425445
0.000686263
0.00100623
0.00139455
0.00186088
0.00241369
0.00305814
0.00379239
0.00459729
0.00542829
0.00619659
0.00678804
0.00703402
-0.000435281
-0.000447481
-0.000414482
-0.000362474
-0.00028173
-0.000170242
-2.29022e-05
0.000166747
0.000406969
0.000708177
0.0010832
0.00154729
0.00211721
0.00280779
0.00363215
0.00458417
0.00562705
0.00666613
0.00752201
0.00799603
-0.000644263
-0.000660472
-0.000634892
-0.000594884
-0.000530363
-0.000439481
-0.000316975
-0.000155934
5.29051e-05
0.000321851
0.000667102
0.00110972
0.0016763
0.00239803
0.00329881
0.00440975
0.00572025
0.00715212
0.00843594
0.00942692
-0.000885836
-0.000906741
-0.000890018
-0.000864508
-0.000819968
-0.00075504
-0.000664806
-0.000542626
-0.000379133
-0.000161196
0.000129429
0.000518018
0.0010393
0.00173905
0.00267002
0.0039084
0.00549805
0.00743566
0.00940587
0.0113263
-0.00115574
-0.00118198
-0.00117532
-0.00116657
-0.00114558
-0.00111195
-0.00106178
-0.000989676
-0.000887661
-0.000744073
-0.000541666
-0.000254969
0.000153599
0.000740339
0.00158408
0.00275992
0.00448643
0.00690619
0.00979193
0.0130023
-0.00144898
-0.00148097
-0.00148497
-0.00149452
-0.00149989
-0.0015021
-0.00149914
-0.00148794
-0.00146366
-0.00141889
-0.00134231
-0.00121648
-0.00101386
-0.000690905
-0.000186306
0.000582888
0.00180176
0.00391912
0.00697307
0.0113059
-0.00176045
-0.00179906
-0.00181385
-0.0018425
-0.00187534
-0.00191579
-0.00196477
-0.00202291
-0.00209051
-0.00216795
-0.00225573
-0.00235503
-0.00246856
-0.00260464
-0.00280855
-0.00318875
-0.00365908
-0.00292431
-0.000299541
0.00477243
-0.00208255
-0.00212537
-0.00214745
-0.00219201
-0.00225131
-0.00233098
-0.00243411
-0.0025653
-0.0027313
-0.00294204
-0.0032138
-0.0035752
-0.00407919
-0.00482592
-0.00604229
-0.0081077
-0.0113341
-0.0124511
-0.010509
-0.00469645
-0.00241974
-0.00247688
-0.00250612
-0.00257163
-0.0026523
-0.002764
-0.00291225
-0.00310846
-0.00336734
-0.00371081
-0.00417363
-0.00481503
-0.00574344
-0.00714138
-0.00942311
-0.012974
-0.019058
-0.0215162
-0.0213952
-0.0140878
-0.00274195
-0.00278722
-0.0028064
-0.00286006
-0.00295222
-0.00309297
-0.00329006
-0.00355354
-0.00390003
-0.00435669
-0.00496934
-0.00581507
-0.00705591
-0.00887951
-0.0120262
-0.0161935
-0.0244184
-0.027096
-0.0292049
-0.0207023
-0.00307598
-0.00319113
-0.00320133
-0.00331039
-0.00340088
-0.0035498
-0.0037487
-0.00402659
-0.00440437
-0.00491607
-0.00561059
-0.0065591
-0.00797322
-0.00985705
-0.0135078
-0.0172168
-0.0260984
-0.0280855
-0.0311106
-0.0217993
-0.00353262
-0.00346232
-0.00341581
-0.00336581
-0.00343056
-0.00358202
-0.00382464
-0.0041609
-0.004602
-0.00516983
-0.00590991
-0.00685839
-0.00827027
-0.00988905
-0.0132846
-0.0165309
-0.0232677
-0.0244677
-0.0279256
-0.0162717
-0.00335649
-0.00391028
-0.00386608
-0.00412776
-0.00412352
-0.00424525
-0.00438316
-0.00463151
-0.00498514
-0.00547608
-0.00613961
-0.00694653
-0.00822017
-0.00962268
-0.0122407
-0.0147974
-0.0191408
-0.0194525
-0.0203422
-0.00304375
-0.00547126
-0.0042701
-0.00402559
-0.00343114
-0.00338865
-0.00350853
-0.00377528
-0.00415226
-0.00462076
-0.00517942
-0.00586773
-0.00662486
-0.00767311
-0.00880727
-0.0103682
-0.0116953
-0.0132434
-0.0121408
-0.0086964
0.0185454
-0.00193293
-0.00531738
-0.00470896
-0.00528469
-0.00486329
-0.00490511
-0.00483531
-0.00498302
-0.00521266
-0.00555885
-0.00611641
-0.00671232
-0.00765259
-0.00877033
-0.0106308
-0.0122599
-0.0150677
-0.0106674
-0.000969184
0.0488023
-0.0165472
-0.00373185
-0.00282474
-0.00259715
-0.00259703
-0.0027619
-0.00308612
-0.00351721
-0.00401329
-0.0045166
-0.00525934
-0.00595753
-0.00687448
-0.0078603
-0.00862305
-0.00776949
-0.00429731
0.0142017
0.053293
0.143401
2.13337e-05
2.08787e-05
6.90457e-05
0.000148731
0.000266455
0.000423776
0.000623782
0.000869892
0.00116544
0.00151311
0.00191429
0.00236792
0.00286899
0.0034071
0.00396365
0.00451057
0.00501075
0.00541253
0.00568981
0.00575443
2.27641e-05
2.18138e-05
7.07541e-05
0.00014901
0.000264199
0.000417966
0.000613611
0.00085474
0.00114498
0.00148751
0.00188443
0.00233546
0.00283609
0.00337894
0.0039457
0.00450898
0.00503064
0.005455
0.00575272
0.00582387
-3.12372e-05
-3.50003e-05
1.19147e-05
8.65999e-05
0.000197267
0.000345629
0.000535354
0.000770599
0.00105584
0.00139548
0.00179321
0.00225118
0.00276898
0.00333831
0.00394596
0.00456411
0.00515108
0.00564145
0.00599274
0.00608455
-0.000123118
-0.000129174
-8.54361e-05
-1.6136e-05
8.75385e-05
0.000227464
0.000407829
0.000633569
0.000910374
0.0012445
0.00164227
0.00210913
0.00264811
0.00325725
0.00392729
0.00463282
0.00532914
0.0059368
0.00638458
0.00652658
-0.000256535
-0.000265353
-0.000226172
-0.000164223
-7.01483e-05
5.8077e-05
0.000225224
0.000437138
0.000700951
0.00102514
0.00141938
0.00189387
0.00245768
0.00311688
0.00386995
0.0046978
0.00555472
0.00634862
0.00695981
0.00721194
-0.000428943
-0.00044112
-0.000407914
-0.000355553
-0.000274199
-0.000161774
-1.30265e-05
0.000178695
0.000421931
0.000727487
0.00110873
0.00158168
0.00216408
0.00287203
0.00371925
0.00470081
0.00577914
0.00685573
0.00774249
0.0082257