/*--------------------------------*- C++ -*----------------------------------*\
  =========                 |
  \\      /  F ield         | OpenFOAM: The Open Source CFD Toolbox
   \\    /   O peration     | Website:  https://openfoam.org
    \\  /    A nd           | Version:  9
     \\/     M anipulation  |
\*---------------------------------------------------------------------------*/
FoamFile
{
    format      ascii;
    class       surfaceScalarField;
    location    "8";
    object      phi;
}
// * * * * * * * * * * * * * * * * * * * * * * * * * * * * * * * * * * * * * //

dimensions      [0 3 -1 0 0 0 0];

internalField   nonuniform List<scalar> 
22800
(
-4.32053e-06
4.81032e-06
-4.89771e-07
-1.16313e-05
7.48628e-06
-1.75502e-07
-1.96498e-05
8.10769e-06
-8.91942e-08
-2.79432e-05
8.33123e-06
-3.78621e-08
-3.6388e-05
8.49078e-06
-4.59446e-08
-4.49273e-05
8.63278e-06
-9.35329e-08
-5.34695e-05
8.72067e-06
-1.78434e-07
-6.18575e-05
8.69504e-06
-3.06986e-07
-6.98472e-05
8.47954e-06
-4.89835e-07
-7.70884e-05
7.98126e-06
-7.40155e-07
-8.31085e-05
7.09255e-06
-1.0724e-06
-8.73061e-05
5.69933e-06
-1.50169e-06
-8.89573e-05
3.69825e-06
-2.04705e-06
-8.72807e-05
1.01819e-06
-2.69486e-06
-8.14967e-05
-2.36436e-06
-3.41964e-06
-7.10412e-05
-6.28165e-06
-4.17383e-06
-5.57972e-05
-1.03884e-05
-4.85561e-06
-3.65551e-05
-1.39679e-05
-5.27427e-06
-1.54647e-05
-1.57779e-05
-5.3124e-06
-1.16963e-05
-3.76841e-06
-6.95323e-06
1.2991e-05
-1.22741e-06
-1.79126e-05
1.94461e-05
-1.00051e-06
-2.98062e-05
2.09137e-05
-9.12415e-07
-4.19845e-05
2.13235e-05
-8.14059e-07
-5.42315e-05
2.15113e-05
-7.73499e-07
-6.64219e-05
2.15923e-05
-7.69058e-07
-7.83978e-05
2.14959e-05
-7.99432e-07
-8.9927e-05
2.10979e-05
-8.73569e-07
-0.000100677
2.0234e-05
-1.00401e-06
-0.000110188
1.87032e-05
-1.21164e-06
-0.000117836
1.626e-05
-1.51933e-06
-0.000122866
1.2676e-05
-1.94689e-06
-0.000124398
7.73962e-06
-2.50882e-06
-0.00012147
1.32719e-06
-3.23757e-06
-0.000113037
-6.72198e-06
-4.07536e-06
-9.83655e-05
-1.59829e-05
-4.96983e-06
-7.72909e-05
-2.56671e-05
-5.79589e-06
-5.07858e-05
-3.41601e-05
-6.31287e-06
-2.1778e-05
-3.84258e-05
-6.35996e-06
-2.91204e-05
-4.3539e-06
-7.50683e-06
2.20313e-05
-1.53355e-06
-1.93484e-05
3.26365e-05
-1.34879e-06
-3.2176e-05
3.50015e-05
-1.26018e-06
-4.52882e-05
3.55767e-05
-1.14097e-06
-5.84659e-05
3.5766e-05
-1.07696e-06
-7.15916e-05
3.57649e-05
-1.04693e-06
-8.45191e-05
3.54751e-05
-1.05167e-06
-9.70321e-05
3.4714e-05
-1.10317e-06
-0.000108814
3.32351e-05
-1.21952e-06
-0.000119415
3.0727e-05
-1.42242e-06
-0.000128236
2.68238e-05
-1.74309e-06
-0.000134474
2.11258e-05
-2.21146e-06
-0.000137122
1.32486e-05
-2.86109e-06
-0.000135003
2.92554e-06
-3.71728e-06
-0.000126875
-1.00924e-05
-4.75728e-06
-0.000111637
-2.53064e-05
-5.91497e-06
-8.87458e-05
-4.15169e-05
-7.04123e-06
-5.89581e-05
-5.61139e-05
-7.83387e-06
-2.55994e-05
-6.37534e-05
-8.03111e-06
-4.90538e-05
-5.66608e-06
-7.51053e-06
3.13229e-05
-1.78101e-06
-1.95073e-05
4.62775e-05
-1.64424e-06
-3.2534e-05
4.95887e-05
-1.5604e-06
-4.58952e-05
5.03679e-05
-1.43006e-06
-5.93968e-05
5.06207e-05
-1.35312e-06
-7.29584e-05
5.0636e-05
-1.30947e-06
-8.64808e-05
5.02998e-05
-1.30232e-06
-9.98025e-05
4.93825e-05
-1.34682e-06
-0.000112666
4.75643e-05
-1.46575e-06
-0.000124676
4.44266e-05
-1.68924e-06
-0.000135249
3.94509e-05
-2.05453e-06
-0.000143561
3.2046e-05
-2.60848e-06
-0.000148507
2.15992e-05
-3.4043e-06
-0.000148691
7.60057e-06
-4.49105e-06
-0.000142439
-1.04403e-05
-5.90416e-06
-0.000127948
-3.22571e-05
-7.54062e-06
-0.000103933
-5.62835e-05
-9.24806e-06
-7.04876e-05
-7.89467e-05
-1.06126e-05
-3.14008e-05
-9.16938e-05
-1.11463e-05
-7.20925e-05
-8.36214e-06
-7.35193e-06
4.06587e-05
-1.98387e-06
-1.93276e-05
6.01414e-05
-1.88829e-06
-3.23976e-05
6.44697e-05
-1.81105e-06
-4.5876e-05
6.55227e-05
-1.67636e-06
-5.96055e-05
6.59468e-05
-1.59668e-06
-7.35606e-05
6.61441e-05
-1.553e-06
-8.77109e-05
6.60016e-05
-1.55145e-06
-0.000101978
6.52613e-05
-1.61128e-06
-0.000116199
6.35464e-05
-1.76139e-06
-0.000130073
6.03424e-05
-2.0418e-06
-0.000143093
5.4977e-05
-2.50581e-06
-0.000154445
4.66199e-05
-3.22233e-06
-0.000162906
3.43312e-05
-4.27111e-06
-0.000166766
1.71859e-05
-5.72488e-06
-0.000163847
-5.61881e-06
-7.74127e-06
-0.000151346
-3.45554e-05
-1.02024e-05
-0.000126694
-6.79692e-05
-1.29658e-05
-8.86804e-05
-0.000101444
-1.55166e-05
-4.12869e-05
-0.000122212
-1.68757e-05
-9.96721e-05
-1.37073e-05
-7.11558e-06
4.99624e-05
-2.18817e-06
-1.90025e-05
7.41611e-05
-2.13281e-06
-3.20582e-05
7.95886e-05
-2.06317e-06
-4.56008e-05
8.09917e-05
-1.9264e-06
-5.95141e-05
8.1708e-05
-1.84789e-06
-7.38393e-05
8.22797e-05
-1.81045e-06
-8.86337e-05
8.26196e-05
-1.82354e-06
-0.000103931
8.24695e-05
-1.91115e-06
-0.000119701
8.14262e-05
-2.10984e-06
-0.000135793
7.89072e-05
-2.47219e-06
-0.000151849
7.41051e-05
-3.07241e-06
-0.000167164
6.59478e-05
-4.01328e-06
-0.000180492
5.30884e-05
-5.42893e-06
-0.000189823
3.40041e-05
-7.48741e-06
-0.000192372
7.32369e-06
-1.03935e-05
-0.000184042
-2.86475e-05
-1.42379e-05
-0.000160187
-7.29127e-05
-1.89109e-05
-0.000117192
-0.000120589
-2.38503e-05
-5.84772e-05
-0.000153661
-2.72655e-05
-0.000133718
-2.44317e-05
-6.80461e-06
5.91899e-05
-2.42291e-06
-1.85384e-05
8.83085e-05
-2.4137e-06
-3.15108e-05
9.49127e-05
-2.35155e-06
-4.50343e-05
9.67257e-05
-2.21051e-06
-5.90333e-05
9.78378e-05
-2.13067e-06
-7.36222e-05
9.89662e-05
-2.09759e-06
-8.89636e-05
0.000100086
-2.12501e-06
-0.00010523
0.000100978
-2.24263e-06
-0.00012257
0.000101263
-2.49627e-06
-0.000141055
0.000100347
-2.95472e-06
-0.000160576
9.73458e-05
-3.72018e-06
-0.00018068
9.09961e-05
-4.94373e-06
-0.000200311
7.95621e-05
-6.84248e-06
-0.000217381
6.07908e-05
-9.71679e-06
-0.000228249
3.21076e-05
-1.39165e-05
-0.000227862
-8.95844e-06
-2.00758e-05
-0.000208238
-6.43662e-05
-2.8171e-05
-0.000161794
-0.000129146
-3.78863e-05
-8.93226e-05
-0.000179854
-4.62786e-05
-0.000175439
-4.76015e-05
-6.41214e-06
6.83088e-05
-2.70668e-06
-1.79176e-05
0.000102568
-2.75397e-06
-3.07097e-05
0.000110402
-2.69717e-06
-4.40805e-05
0.000112642
-2.5452e-06
-5.79896e-05
0.000114202
-2.4555e-06
-7.26238e-05
0.000116018
-2.4176e-06
-8.82577e-05
0.00011817
-2.45017e-06
-0.000105226
0.000120536
-2.58978e-06
-0.0001239
0.000122831
-2.8933e-06
-0.000144648
0.000124543
-3.44864e-06
-0.000167742
0.000124833
-4.39379e-06
-0.000193178
0.000122379
-5.9464e-06
-0.000220358
0.000115188
-8.44656e-06
-0.000247544
0.000100376
-1.23997e-05
-0.000270969
7.40593e-05
-1.85259e-05
-0.000283805
3.18455e-05
-2.7968e-05
-0.000275138
-3.09661e-05
-4.20675e-05
-0.000231101
-0.000112149
-6.10344e-05
-0.000143434
-0.000185941
-8.15806e-05
-0.000219851
-9.9021e-05
-5.94416e-06
7.73122e-05
-3.05931e-06
-1.71476e-05
0.000116949
-3.17796e-06
-2.9641e-05
0.000126017
-3.12141e-06
-4.26786e-05
0.000128626
-2.94642e-06
-5.62405e-05
0.000130596
-2.83134e-06
-7.05775e-05
0.000133126
-2.77108e-06
-8.60707e-05
0.000136453
-2.78964e-06
-0.000103214
0.000140609
-2.93026e-06
-0.00012262
0.000145498
-3.26084e-06
-0.000145012
0.000150825
-3.88942e-06
-0.000171163
0.000155976
-4.99205e-06
-0.000201753
0.000159829
-6.86114e-06
-0.000237055
0.000160481
-9.99008e-06
-0.000276289
0.000154808
-1.51976e-05
-0.000316512
0.000138065
-2.37825e-05
-0.000350506
0.000103677
-3.78371e-05
-0.000364177
4.40921e-05
-6.1387e-05
-0.000335367
-4.45107e-05
-9.64482e-05
-0.000236923
-0.00014594
-0.000138445
-0.000269257
-0.000187518
-5.43189e-06
8.62539e-05
-3.50978e-06
-1.62897e-05
0.000131529
-3.72151e-06
-2.83636e-05
0.000141748
-3.65736e-06
-4.0855e-05
0.000144558
-3.44083e-06
-5.37388e-05
0.000146755
-3.27543e-06
-6.73167e-05
0.000149868
-3.16428e-06
-8.20551e-05
0.000154329
-3.13746e-06
-9.85816e-05
0.00016038
-3.24457e-06
-0.000117728
0.000168208
-3.56324e-06
-0.000140571
0.000177887
-4.21871e-06
-0.000168458
0.000189285
-5.42278e-06
-0.000202958
0.000201874
-7.54432e-06
-0.000245651
0.000214412
-1.1239e-05
-0.000297511
0.000224343
-1.76752e-05
-0.000357781
0.000227183
-2.88477e-05
-0.000421414
0.000215487
-4.81773e-05
-0.000472159
0.00017622
-8.13827e-05
-0.00047361
8.52935e-05
-0.000128353
-0.000369657
-8.55675e-05
-0.000164325
-0.000420456
-0.000218458
-4.94014e-06
9.52946e-05
-4.10061e-06
-1.54812e-05
0.000146487
-4.41681e-06
-2.70412e-05
0.000157626
-4.31815e-06
-3.87763e-05
0.000160317
-4.02386e-06
-5.05951e-05
0.00016235
-3.77671e-06
-6.28492e-05
0.000165707
-3.58449e-06
-7.60519e-05
0.000171006
-3.47462e-06
-9.08911e-05
0.000178718
-3.49856e-06
-0.000108327
0.000189383
-3.73882e-06
-0.000129686
0.000203569
-4.32417e-06
-0.000156774
0.000221849
-5.47543e-06
-0.000191995
0.000244677
-7.58087e-06
-0.000238443
0.000272212
-1.1352e-05
-0.000299562
0.000303504
-1.80424e-05
-0.000378561
0.000335761
-2.95787e-05
-0.000474089
0.000359229
-4.8214e-05
-0.000572664
0.000348313
-7.35175e-05
-0.000624081
0.000211838
-7.51281e-05
-0.000531079
-0.000187569
8.99911e-06
-0.000919287
-3.22473e-05
-4.66351e-06
0.000104917
-4.95926e-06
-1.5077e-05
0.000162398
-5.49788e-06
-2.60667e-05
0.000173988
-5.37194e-06
-3.67873e-05
0.000176025
-4.98707e-06
-4.71039e-05
0.000177236
-4.5695e-06
-5.74309e-05
0.000180224
-4.19045e-06
-6.8236e-05
0.000185712
-3.90119e-06
-8.02045e-05
0.00019445
-3.76364e-06
-9.42903e-05
0.000207322
-3.85378e-06
-0.000111869
0.000225443
-4.2946e-06
-0.00013497
0.000250239
-5.28955e-06
-0.000166463
0.000283331
-7.16125e-06
-0.000210759
0.000326964
-1.04556e-05
-0.000273423
0.000381819
-1.56509e-05
-0.000363973
0.000447793
-2.14824e-05
-0.000490771
0.00050709
-2.10631e-05
-0.00066423
0.000509146
1.26244e-05
-0.000822109
0.000211785
0.000157932
-0.000696359
-0.000720807
0.000407489
-0.00176828
0.000152637
-4.2581e-06
0.000115218
-6.04278e-06
-1.485e-05
0.000179471
-6.48142e-06
-2.53812e-05
0.0001907
-6.18067e-06
-3.54735e-05
0.000191647
-5.52981e-06
-4.42464e-05
0.000190938
-4.9286e-06
-5.21842e-05
0.00019257
-4.40764e-06
-5.96348e-05
0.000197144
-3.98149e-06
-6.72213e-05
0.000205722
-3.68529e-06
-7.57369e-05
0.000219414
-3.57625e-06
-8.62994e-05
0.000239716
-3.71071e-06
-0.000100725
0.00026886
-4.19518e-06
-0.000121514
0.00030917
-5.04998e-06
-0.000154573
0.000366213
-6.19018e-06
-0.00020763
0.000440654
-5.77726e-06
-0.000305188
0.00054207
3.28073e-06
-0.000480635
0.000631071
5.1466e-05
-0.000783163
0.000614434
0.000197241
-0.00102243
-2.47896e-05
0.000475843
-0.000733674
-0.00162616
0.000616599
-0.00252221
2.02519e-05
-6.80379e-06
0.000130263
-8.2409e-06
-1.85098e-05
0.000200565
-9.38808e-06
-2.84104e-05
0.00020959
-8.9895e-06
-3.57816e-05
0.000207269
-8.25127e-06
-4.12254e-05
0.000203585
-7.20283e-06
-4.5575e-05
0.000203125
-6.20558e-06
-4.9102e-05
0.000205929
-5.25753e-06
-5.19971e-05
0.000213094
-4.47691e-06
-5.44614e-05
0.000225798
-3.91943e-06
-5.67389e-05
0.000245608
-3.61438e-06
-5.99714e-05
0.000275772
-3.67994e-06
-6.54221e-05
0.000318263
-3.64253e-06
-7.99061e-05
0.000383577
-2.87974e-06
-0.000110818
0.000467156
4.41011e-06
-0.000202642
0.000599441
3.44522e-05
-0.000406349
0.000698871
0.000135907
-0.000784837
0.000630907
0.000362015
-0.000970035
-0.000437792
0.000598201
-0.000697052
-0.00231248
0.000413336
-0.00308822
-0.000131046
-3.2704e-06
0.000144741
-1.12072e-05
-1.69533e-05
0.000225623
-1.13746e-05
-2.78204e-05
0.000230753
-1.02961e-05
-3.80531e-05
0.000226036
-8.53375e-06
-4.35221e-05
0.000216053
-6.99906e-06
-4.59028e-05
0.000211208
-5.70196e-06
-4.49272e-05
0.000209518
-4.56478e-06
-4.11562e-05
0.000212914
-3.59039e-06
-3.46214e-05
0.000222067
-2.80353e-06
-2.48457e-05
0.000237927
-2.09431e-06
-1.13454e-05
0.000264013
-1.74085e-06
5.39047e-06
0.000301684
-1.57113e-07
2.41437e-05
0.000362352
2.47184e-06
3.17582e-05
0.000441771
1.77703e-05
-6.12421e-06
0.000576262
6.10613e-05
-0.000179598
0.000681787
0.000190558
-0.00052161
0.000553623
0.000419296
-0.000710808
-0.000742475
0.00049388
-0.000677055
-0.00251316
0.00016692
-0.00358662
-0.000178648
-3.0049e-05
0.000190389
-1.55989e-05
-4.30351e-05
0.000254897
-1.62884e-05
-4.87638e-05
0.000252495
-1.60135e-05
-4.72979e-05
0.000239817
-1.52475e-05
-4.3479e-05
0.000225072
-1.28384e-05
-3.87869e-05
0.000217002
-1.04869e-05
-3.27779e-05
0.000211652
-8.14248e-06
-2.43183e-05
0.000210572
-6.11813e-06
-1.21928e-05
0.000214483
-4.54221e-06
5.64566e-06
0.000223119
-3.03067e-06
3.13454e-05
0.000240813
-2.49955e-06
6.75525e-05
0.000266008
-5.31482e-07
0.000115164
0.000312268
2.47264e-06
0.000172609
0.000367957
1.6369e-05
0.000213017
0.000471717
6.41373e-05
0.000162266
0.0005536
0.000178938
-4.93827e-05
0.000405709
0.000359563
-0.000354827
-0.000772261
0.000335231
-0.000518019
-0.00246596
0.000115994
-0.00381406
-0.00029058
1.6114e-05
0.000211198
-3.69239e-05
-1.99677e-05
0.000325692
-3.47131e-05
-4.35046e-05
0.000298963
-2.29313e-05
-5.90997e-05
0.000270878
-1.54652e-05
-6.23559e-05
0.000239588
-1.12599e-05
-5.80849e-05
0.000221105
-8.37327e-06
-4.73001e-05
0.000206649
-5.78247e-06
-3.11925e-05
0.000197907
-3.44279e-06
-9.43254e-06
0.000194522
-1.79881e-06
1.99879e-05
0.000193834
-1.35297e-07
6.06911e-05
0.000200168
-5.83069e-08
0.000117484
0.00020835
8.65286e-07
0.000195284
0.000232069
2.39976e-06
0.000300658
0.000252444
1.01384e-05
0.000424819
0.000307588
3.99683e-05
0.000530612
0.00032479
0.000123017
0.000434846
0.000258652
0.000242823
2.70974e-05
-0.000614175
0.000249663
-0.000310847
-0.0022798
0.000151791
-0.00380921
-0.000315702
-9.31825e-05
0.000328904
-2.45231e-05
-8.11016e-05
0.000339657
-2.60456e-05
-7.14957e-05
0.00031979
-3.0433e-05
-7.17326e-05
0.000307059
-3.59439e-05
-6.07526e-05
0.000258347
-2.97393e-05
-4.71217e-05
0.000229994
-2.25203e-05
-3.03332e-05
0.00020531
-1.54493e-05
-8.4192e-06
0.000185265
-9.27189e-06
1.84418e-05
0.000173019
-5.3581e-06
5.39626e-05
0.0001598
-1.48716e-06
9.93179e-05
0.00015675
-1.93774e-06
0.000160968
0.000148005
-1.30564e-06
0.000241506
0.000156686
-5.15569e-06
0.000342096
0.000150589
1.26487e-06
0.000474106
0.000172837
2.74089e-06
0.000596337
0.000133108
6.94516e-05
0.000688376
5.42921e-05
0.000112321
0.00047147
-0.000517151
0.000119881
8.63945e-06
-0.00197083
0.000153855
-0.00344757
-0.000352999
-0.000379479
0.000853004
-0.000144621
-0.000340611
0.000376628
-7.58387e-05
-0.000275609
0.000305879
-5.10907e-05
-0.000162053
0.00023152
-3.80176e-05
-5.12002e-05
0.000176122
-2.86274e-05
5.79706e-05
0.000137357
-1.65338e-05
0.000158134
0.000113958
-8.81101e-06
0.000250446
9.35526e-05
-5.99293e-07
0.000336702
8.42079e-05
2.55501e-06
0.000418266
7.01177e-05
8.11823e-06
0.000499599
6.88491e-05
6.5684e-06
0.000582317
5.90413e-05
6.24591e-06
0.000683224
5.98243e-05
-4.04493e-06
0.000781795
5.07238e-05
1.29455e-06
0.000945479
4.0321e-05
-3.11685e-05
0.00108098
-4.17577e-06
1.78404e-06
0.00119924
-0.000130866
6.6896e-05
0.00118352
-0.000508743
7.31501e-06
0.000512925
-0.0014388
0.00013856
-0.00247184
-0.000462802
0.00096042
-0.000107416
0.00144228
-0.000105228
0.00185597
-0.000107813
0.00218769
-0.000100205
0.00245604
-9.22271e-05
0.00267624
-8.28381e-05
0.00286671
-7.65159e-05
0.00302966
-6.93998e-05
0.003173
-5.91304e-05
0.00330577
-6.26484e-05
0.00341709
-4.24767e-05
0.00353288
-5.67449e-05
0.00362533
-3.26294e-05
0.00373328
-5.72227e-05
0.00379223
-1.86331e-05
0.00385802
-6.99594e-05
0.00372512
2.03269e-06
0.00329957
-8.31941e-05
0.00185204
8.73001e-06
-0.000619796
-6.55075e-06
6.86201e-06
-8.01034e-07
-1.76513e-05
1.15713e-05
-6.46283e-07
-2.97879e-05
1.26191e-05
-5.71726e-07
-4.21178e-05
1.28132e-05
-5.21166e-07
-5.4443e-05
1.28207e-05
-5.4146e-07
-6.66627e-05
1.27449e-05
-6.18844e-07
-7.86247e-05
1.2539e-05
-7.55398e-07
-9.00914e-05
1.21224e-05
-9.62712e-07
-0.000100717
1.13935e-05
-1.25756e-06
-0.000110029
1.02314e-05
-1.6598e-06
-0.00011741
8.49941e-06
-2.19062e-06
-0.000122098
6.05495e-06
-2.86909e-06
-0.000123212
2.77569e-06
-3.70819e-06
-0.000119789
-1.41448e-06
-4.70318e-06
-0.000110914
-6.48279e-06
-5.81263e-06
-9.59322e-05
-1.21936e-05
-6.96156e-06
-7.47528e-05
-1.8018e-05
-8.01704e-06
-4.84148e-05
-2.2857e-05
-8.75535e-06
-2.01374e-05
-2.46077e-05
-8.98204e-06
-1.68254e-05
-7.08048e-06
-1.16289e-05
1.88095e-05
-1.54601e-06
-2.96089e-05
3.00893e-05
-1.53852e-06
-4.89824e-05
3.25402e-05
-1.45998e-06
-6.84368e-05
3.28145e-05
-1.36099e-06
-8.7593e-05
3.25368e-05
-1.33336e-06
-0.000106209
3.19582e-05
-1.36583e-06
-0.000124
3.09949e-05
-1.46454e-06
-0.000140588
2.94828e-05
-1.64642e-06
-0.000155471
2.72081e-05
-1.93494e-06
-0.000168004
2.39111e-05
-2.35864e-06
-0.000177362
1.92862e-05
-2.94791e-06
-0.000182571
1.30466e-05
-3.73002e-06
-0.000182562
4.98357e-06
-4.72543e-06
-0.000176129
-5.13108e-06
-5.95417e-06
-0.000162091
-1.72545e-05
-7.34186e-06
-0.000139652
-3.07939e-05
-8.80815e-06
-0.000108718
-4.4568e-05
-1.01801e-05
-7.06604e-05
-5.60643e-05
-1.1163e-05
-2.99619e-05
-6.0205e-05
-1.14612e-05
-4.22751e-05
-8.86604e-06
-1.29894e-05
3.21546e-05
-1.88927e-06
-3.29541e-05
5.06615e-05
-1.9563e-06
-5.43919e-05
5.45951e-05
-1.87727e-06
-7.58515e-05
5.48875e-05
-1.75434e-06
-9.69312e-05
5.42405e-05
-1.70095e-06
-0.000117383
5.30703e-05
-1.70758e-06
-0.00013692
5.12643e-05
-1.78365e-06
-0.000155173
4.85826e-05
-1.95059e-06
-0.000171649
4.47035e-05
-2.23813e-06
-0.000185705
3.92274e-05
-2.68287e-06
-0.000196527
3.16914e-05
-3.32618e-06
-0.000203089
2.16082e-05
-4.21171e-06
-0.000204133
8.54591e-06
-5.37962e-06
-0.000198238
-7.89306e-06
-6.84933e-06
-0.000183942
-2.77242e-05
-8.5842e-06
-0.000159998
-5.0161e-05
-1.0492e-05
-0.000125855
-7.33848e-05
-1.23668e-05
-8.2636e-05
-9.32893e-05
-1.38284e-05
-3.54796e-05
-0.000100984
-1.44088e-05
-7.21214e-05
-1.12993e-05
-1.3298e-05
4.58633e-05
-2.19168e-06
-3.38817e-05
7.19366e-05
-2.33552e-06
-5.60061e-05
7.74204e-05
-2.26139e-06
-7.81962e-05
7.77714e-05
-2.1238e-06
-0.00010008
7.68256e-05
-2.0543e-06
-0.000121455
7.51816e-05
-2.04578e-06
-0.000142092
7.27106e-05
-2.11165e-06
-0.000161686
6.91083e-05
-2.27871e-06
-0.000179815
6.39519e-05
-2.58459e-06
-0.000195896
5.66965e-05
-3.07784e-06
-0.000209122
4.668e-05
-3.81711e-06
-0.000218418
3.31646e-05
-4.86889e-06
-0.000222397
1.54257e-05
-6.30509e-06
-0.000219355
-7.23147e-06
-8.1948e-06
-0.000207155
-3.52988e-05
-1.05289e-05
-0.00018372
-6.79114e-05
-1.32258e-05
-0.000147498
-0.000102806
-1.60478e-05
-9.87848e-05
-0.000134159
-1.84562e-05
-4.35221e-05
-0.000147752
-1.96407e-05
-0.0001082
-1.58056e-05
-1.33613e-05
5.97105e-05
-2.46972e-06
-3.42966e-05
9.36726e-05
-2.68909e-06
-5.68747e-05
0.00010081
-2.62218e-06
-7.9609e-05
0.000101305
-2.47554e-06
-0.000102177
0.000100195
-2.39869e-06
-0.000124448
9.82876e-05
-2.38709e-06
-0.000146286
9.54559e-05
-2.45914e-06
-0.000167491
9.13501e-05
-2.6487e-06
-0.000187756
8.546e-05
-3.00398e-06
-0.000206608
7.70968e-05
-3.58989e-06
-0.00022332
6.53759e-05
-4.49036e-06
-0.000236795
4.92267e-05
-5.80928e-06
-0.000245444
2.74708e-05
-7.66674e-06
-0.000247243
-9.64702e-07
-1.0193e-05
-0.000239189
-3.76242e-05
-1.34699e-05
-0.000217951
-8.188e-05
-1.74718e-05
-0.000180269
-0.000131502
-2.19518e-05
-0.000124714
-0.000179025
-2.6205e-05
-5.76287e-05
-0.000203043
-2.86707e-05
-0.0001556
-2.39358e-05
-1.3376e-05
7.36649e-05
-2.76662e-06
-3.4646e-05
0.000115877
-3.06698e-06
-5.76814e-05
0.00012479
-3.00803e-06
-8.09734e-05
0.000125523
-2.85278e-06
-0.000104257
0.000124401
-2.77027e-06
-0.000127495
0.000122475
-2.75926e-06
-0.000150669
0.00011965
-2.84388e-06
-0.000173727
0.000115563
-3.0662e-06
-0.000196536
0.000109646
-3.48744e-06
-0.000218806
0.000101088
-4.19332e-06
-0.000239982
8.87805e-05
-5.30128e-06
-0.000259078
7.12779e-05
-6.96805e-06
-0.000274449
4.68022e-05
-9.38922e-06
-0.000283579
1.34389e-05
-1.27617e-05
-0.000282776
-3.13026e-05
-1.75179e-05
-0.00026682
-8.84731e-05
-2.36008e-05
-0.000229769
-0.000156549
-3.09155e-05
-0.000167079
-0.000226948
-3.86168e-05
-8.3915e-05
-0.000269585
-4.38879e-05
-0.000225371
-3.8576e-05
-1.33665e-05
8.77236e-05
-3.11504e-06
-3.49859e-05
0.000138592
-3.50986e-06
-5.84913e-05
0.000149401
-3.45763e-06
-8.23359e-05
0.000150446
-3.28843e-06
-0.000106315
0.000149444
-3.19373e-06
-0.000130498
0.000147736
-3.17652e-06
-0.000155012
0.000145307
-3.26742e-06
-0.00018
0.000141826
-3.51775e-06
-0.00020557
0.000136724
-4.00375e-06
-0.000231721
0.00012912
-4.83648e-06
-0.000258214
0.00011773
-6.17646e-06
-0.000284372
0.000100746
-8.25367e-06
-0.000308752
7.57281e-05
-1.13885e-05
-0.000328584
3.95824e-05
-1.60282e-05
-0.000339701
-1.14092e-05
-2.2693e-05
-0.000334769
-8.15244e-05
-3.19556e-05
-0.000304099
-0.000171382
-4.40076e-05
-0.000238209
-0.000272707
-5.80175e-05
-0.000135971
-0.00034873
-6.93717e-05
-0.00034259
-6.63533e-05
-1.33286e-05
0.000101888
-3.54276e-06
-3.53045e-05
0.000161866
-4.05191e-06
-5.92611e-05
0.000174663
-4.00204e-06
-8.35904e-05
0.000176037
-3.80709e-06
-0.000108144
0.000175227
-3.68501e-06
-0.000133103
0.000173922
-3.64402e-06
-0.000158767
0.000172242
-3.72154e-06
-0.000185511
0.00016996
-3.97839e-06
-0.000213762
0.000166588
-4.50661e-06
-0.00024393
0.000161285
-5.44526e-06
-0.000276295
0.000152707
-7.00623e-06
-0.000310778
0.000138796
-9.51351e-06
-0.000346551
0.000116511
-1.34565e-05
-0.000381358
8.15292e-05
-1.95394e-05
-0.000410898
2.82701e-05
-2.86652e-05
-0.000426935
-5.09217e-05
-4.25339e-05
-0.000415903
-0.00016223
-6.22515e-05
-0.000361032
-0.000301026
-8.75874e-05
-0.00024251
-0.000436814
-0.000112018
-0.000565177
-0.000118945
-1.32718e-05
0.000116184
-4.08316e-06
-3.5615e-05
0.000185765
-4.73364e-06
-5.99756e-05
0.000200579
-4.67727e-06
-8.46555e-05
0.000202207
-4.43677e-06
-0.000109549
0.000201551
-4.2619e-06
-0.000134948
0.000200717
-4.16715e-06
-0.000161327
0.000200027
-4.19627e-06
-0.000189318
0.000199438
-4.41775e-06
-0.000219718
0.000198664
-4.93645e-06
-0.000253467
0.000197061
-5.91552e-06
-0.000291579
0.000193441
-7.61423e-06
-0.000334971
0.000185778
-1.04514e-05
-0.00038412
0.000170782
-1.51117e-05
-0.000438372
0.000143287
-2.27039e-05
-0.000494715
9.58286e-05
-3.49975e-05
-0.000547909
1.90846e-05
-5.46498e-05
-0.000582448
-0.000103479
-8.55985e-05
-0.000569831
-0.000282395
-0.000127696
-0.000440662
-0.000535935
-0.000168494
-0.00100916
-0.000184198
-1.32403e-05
0.000130698
-4.7832e-06
-3.59999e-05
0.000210417
-5.6142e-06
-6.07081e-05
0.000227168
-5.53728e-06
-8.55491e-05
0.000228829
-5.22159e-06
-0.000110435
0.000228117
-4.95515e-06
-0.00013576
0.000227639
-4.76111e-06
-0.000162164
0.000227983
-4.6892e-06
-0.000190531
0.000229373
-4.81237e-06
-0.000222043
0.000231854
-5.24197e-06
-0.00025824
0.000235192
-6.15332e-06
-0.000301064
0.000238678
-7.83554e-06
-0.00035284
0.000240806
-1.07962e-05
-0.000416133
0.000238748
-1.59125e-05
-0.000493398
0.000227597
-2.47205e-05
-0.000586477
0.000199841
-3.97811e-05
-0.000694068
0.000143605
-6.51072e-05
-0.000803157
2.96856e-05
-0.000105458
-0.000843438
-0.000219848
-0.000150618
-0.000655271
-0.000727326
-0.000161101
-0.0017369
-0.000145989
-1.3305e-05
0.000145613
-5.71139e-06
-3.66183e-05
0.000236074
-6.76047e-06
-6.16511e-05
0.00025451
-6.6282e-06
-8.64633e-05
0.000255804
-6.18728e-06
-0.000110905
0.000254561
-5.77928e-06
-0.000135465
0.000254047
-5.43221e-06
-0.000160927
0.000255163
-5.19401e-06
-0.000188359
0.000258441
-5.13393e-06
-0.000219254
0.000264368
-5.35776e-06
-0.000255686
0.000273324
-6.02423e-06
-0.000300498
0.000285432
-7.41719e-06
-0.000357569
0.000300331
-1.00349e-05
-0.000432136
0.000316754
-1.47912e-05
-0.000531072
0.000331836
-2.3346e-05
-0.000662613
0.000340082
-3.82788e-05
-0.000827965
0.000322528
-6.17835e-05
-0.00099204
0.000205661
-8.54176e-05
-0.0010176
-0.000210325
-5.90908e-05
-0.000679641
-0.00112842
7.21371e-05
-0.00250006
5.12689e-05
-1.38123e-05
0.000161494
-7.02796e-06
-3.80271e-05
0.000263215
-8.42372e-06
-6.33557e-05
0.000282693
-8.22614e-06
-8.77534e-05
0.000282836
-7.62116e-06
-0.000111156
0.000280365
-6.97039e-06
-0.000134173
0.000279223
-6.34939e-06
-0.000157594
0.000280507
-5.82446e-06
-0.00018259
0.000285142
-5.46872e-06
-0.00021084
0.000294132
-5.36703e-06
-0.000244774
0.000308603
-5.64012e-06
-0.000287913
0.000329804
-6.52279e-06
-0.000345354
0.000358999
-8.38744e-06
-0.000424562
0.000397415
-1.19085e-05
-0.000535099
0.000444692
-1.79706e-05
-0.000686407
0.000495401
-2.54931e-05
-0.000870986
0.000508638
-2.2594e-05
-0.0010435
0.000353732
3.70684e-05
-0.0010416
-0.00029148
0.000237189
-0.00059653
-0.0016478
0.000481789
-0.00304797
0.00010402
-1.38516e-05
0.000178071
-8.7682e-06
-3.94567e-05
0.000292673
-1.03341e-05
-6.54677e-05
0.000312435
-9.9118e-06
-9.03304e-05
0.000311113
-8.94418e-06
-0.000112739
0.000305832
-7.98602e-06
-0.000133496
0.000302646
-7.07386e-06
-0.000153371
0.000302651
-6.25059e-06
-0.000173631
0.000307263
-5.54641e-06
-0.000195949
0.000317874
-5.00086e-06
-0.000222676
0.000336271
-4.65215e-06
-0.000257383
0.000364857
-4.54026e-06
-0.000305399
0.000406648
-4.68267e-06
-0.000375557
0.000466224
-4.84212e-06
-0.000478523
0.000544878
-2.996e-06
-0.000627707
0.000637531
1.03351e-05
-0.000806858
0.000667217
7.2037e-05
-0.000990227
0.000470838
0.000263503
-0.000991157
-0.000414722
0.000600016
-0.000548098
-0.00210403
0.000629772
-0.00349391
-8.19072e-05
-1.90661e-05
0.000200619
-1.17225e-05
-4.73884e-05
0.000325637
-1.40301e-05
-7.32971e-05
0.000342805
-1.34501e-05
-9.47676e-05
0.00033661
-1.22775e-05
-0.000113401
0.00032807
-1.08079e-05
-0.000130232
0.000322588
-9.31637e-06
-0.000145894
0.000320899
-7.843e-06
-0.000161061
0.000324441
-6.48791e-06
-0.000176757
0.00033493
-5.27956e-06
-0.000194591
0.000354693
-4.20285e-06
-0.000217503
0.000387291
-3.20121e-06
-0.000249524
0.000436759
-1.7335e-06
-0.000299221
0.000511598
1.44417e-06
-0.000371381
0.000608791
1.26571e-05
-0.000486237
0.00073519
5.16487e-05
-0.000622125
0.000763752
0.00017526
-0.000797033
0.000553032
0.000454729
-0.000773326
-0.000557151
0.000716922
-0.000425702
-0.00236384
0.000325524
-0.0039043
-0.00014635
-1.14526e-05
0.000216908
-1.60437e-05
-4.396e-05
0.000364985
-1.82155e-05
-7.453e-05
0.000379825
-1.67462e-05
-0.000102844
0.000370704
-1.43138e-05
-0.000122933
0.000353189
-1.20291e-05
-0.000137632
0.000341489
-9.90429e-06
-0.000147267
0.000333911
-7.94063e-06
-0.000153442
0.00033312
-6.0957e-06
-0.000157033
0.000340068
-4.3505e-06
-0.000158813
0.000356925
-2.54643e-06
-0.000160126
0.000387447
-5.83416e-07
-0.000161882
0.00043547
2.88715e-06
-0.000170532
0.000513531
9.18919e-06
-0.000183613
0.000610019
2.96233e-05
-0.00022767
0.000755526
8.47817e-05
-0.000291763
0.000782328
0.000236075
-0.000402702
0.000577154
0.000506113
-0.000425064
-0.0006137
0.000572791
-0.000250007
-0.00239336
2.13859e-05
-0.0041467
-0.00018626
-5.41885e-05
0.000276329
-2.08308e-05
-8.45649e-05
0.000402473
-2.33999e-05
-0.000105438
0.000407563
-2.2879e-05
-0.000116384
0.000387697
-2.12942e-05
-0.000124473
0.000366812
-1.8373e-05
-0.000130865
0.000352658
-1.52648e-05
-0.000134959
0.000341921
-1.20576e-05
-0.000135725
0.00033682
-9.05275e-06
-0.00013231
0.000338411
-6.30017e-06
-0.000123143
0.00034831
-3.58328e-06
-0.000107743
0.000370722
-1.17346e-06
-8.30481e-05
0.000407074
3.16881e-06
-5.0912e-05
0.000474108
9.75946e-06
-1.27911e-05
0.000556252
3.20152e-05
4.80582e-05
0.000671465
8.73493e-05
7.23766e-05
0.000714377
0.000222571
9.92932e-05
0.000491267
0.000418534
-6.15379e-05
-0.000499834
0.000382195
-5.68939e-05
-0.00225554
-2.64755e-05
-0.00421961
-0.000274564
5.31957e-06
0.000276168
-4.20833e-05
-6.95494e-05
0.000486666
-4.40372e-05
-0.000119952
0.000468424
-3.339e-05
-0.00014978
0.000427577
-2.55163e-05
-0.00016183
0.000387754
-2.01523e-05
-0.000164758
0.000362988
-1.57753e-05
-0.000159417
0.000342568
-1.17701e-05
-0.000148195
0.000330116
-7.95969e-06
-0.000129764
0.000322866
-4.68595e-06
-0.000102229
0.000322059
-1.41917e-06
-6.19377e-05
0.00032962
7.52222e-07
-5.22485e-06
0.000346438
4.78918e-06
7.85196e-05
0.000383661
9.10247e-06
0.000188974
0.000431831
2.41049e-05
0.000338315
0.000503774
5.83185e-05
0.000501325
0.000521083
0.000153301
0.000579904
0.000381225
0.000274285
0.000320518
-0.000256162
0.000265377
0.000167765
-0.00200543
5.44328e-05
-0.0041254
-0.000242151
-4.45107e-05
0.000329697
-3.35407e-05
-2.41389e-05
0.000479795
-3.95466e-05
-4.4259e-05
0.00050014
-4.20289e-05
-9.43227e-05
0.000485304
-4.36074e-05
-0.000123074
0.00042394
-3.7174e-05
-0.000142255
0.000389211
-2.95623e-05
-0.000147651
0.000354172
-2.1657e-05
-0.000139515
0.000327137
-1.4429e-05
-0.000119835
0.000306652
-8.82345e-06
-8.48281e-05
0.000289124
-3.56002e-06
-3.54578e-05
0.000280076
-1.76395e-06
3.35039e-05
0.000274197
1.97322e-06
0.000128187
0.000282676
1.14582e-06
0.000248252
0.000300042
1.29881e-05
0.00041185
0.00032418
1.87368e-05
0.000566721
0.000342175
9.34887e-05
0.000762113
0.000177416
0.000120739
0.000712524
-0.000196967
0.000110274
0.00053917
-0.00176781
8.95892e-05
-0.00368136
-0.000257864
-0.000645364
0.000951388
-0.000120949
-0.000680379
0.000515823
-7.68514e-05
-0.000638972
0.000465241
-5.75988e-05
-0.000525913
0.000382643
-4.8415e-05
-0.000409358
0.000318272
-3.95141e-05
-0.000282814
0.000274025
-2.78924e-05
-0.000157972
0.000240483
-1.99636e-05
-3.55906e-05
0.000215092
-1.09361e-05
8.61922e-05
0.00019342
-5.9957e-06
0.000204127
0.000178503
8.05314e-07
0.000324399
0.000164382
1.98966e-06
0.000445007
0.000156601
3.2342e-06
0.000581333
0.000145972
-3.66632e-06
0.000727096
0.000148624
6.95016e-06
0.000928771
0.0001187
-2.73639e-05
0.00114427
0.000114605
1.38588e-05
0.00137122
-5.37724e-05
7.11289e-05
0.00153994
-0.000336825
-2.15475e-05
0.00120214
-0.00136753
7.60816e-05
-0.00263649
-0.000305533
0.000933589
-8.96169e-05
0.0014364
-9.22127e-05
0.00188918
-9.5353e-05
0.00226309
-9.14688e-05
0.00257706
-8.79324e-05
0.00285092
-8.26744e-05
0.00309202
-7.71283e-05
0.00331235
-7.46402e-05
0.00351023
-6.35893e-05
0.00369626
-7.01787e-05
0.00386749
-4.93249e-05
0.0040315
-6.41513e-05
0.00418405
-3.92112e-05
0.00434137
-6.59166e-05
0.00446664
-2.51975e-05
0.00459246
-8.11805e-05
0.00455269
-1.19657e-05
0.00423025
-9.75834e-05
0.00289293
-2.14803e-05
-0.000363347
-7.03052e-06
7.15515e-06
-9.25672e-07
-1.90408e-05
1.23667e-05
-1.0027e-06
-3.21527e-05
1.35191e-05
-9.78983e-07
-4.54085e-05
1.36914e-05
-9.56758e-07
-5.85937e-05
1.36368e-05
-9.93028e-07
-7.16004e-05
1.34769e-05
-1.08902e-06
-8.42659e-05
1.31638e-05
-1.25372e-06
-9.63395e-05
1.26137e-05
-1.50274e-06
-0.000107461
1.17207e-05