/*--------------------------------*- C++ -*----------------------------------*\
  =========                 |
  \\      /  F ield         | OpenFOAM: The Open Source CFD Toolbox
   \\    /   O peration     | Website:  https://openfoam.org
    \\  /    A nd           | Version:  9
     \\/     M anipulation  |
\*---------------------------------------------------------------------------*/
FoamFile
{
    format      ascii;
    class       volVectorField;
    location    "8";
    object      U;
}
// * * * * * * * * * * * * * * * * * * * * * * * * * * * * * * * * * * * * * //

dimensions      [0 1 -1 0 0 0 0];

internalField   nonuniform List<vector> 
8000
(
(-0.000150795 0.000168379 -2.72991e-05)
(-0.000738684 0.000278204 -1.69677e-07)
(-0.0015678 0.000304747 7.16779e-06)
(-0.00237711 0.000317345 1.14356e-05)
(-0.00321786 0.000329169 1.10562e-05)
(-0.00406904 0.000342047 7.88487e-06)
(-0.00492558 0.00035404 2.40128e-06)
(-0.00577535 0.000362224 -5.66327e-06)
(-0.0065985 0.000362899 -1.69045e-05)
(-0.00736592 0.000351514 -3.20651e-05)
(-0.00803695 0.000322861 -5.19191e-05)
(-0.00855795 0.000272184 -7.71428e-05)
(-0.00886244 0.000194769 -0.000108165)
(-0.00887423 8.5692e-05 -0.000145723)
(-0.0085127 -5.77453e-05 -0.000188135)
(-0.0077091 -0.000228136 -0.00023246)
(-0.00641224 -0.000409354 -0.000272135)
(-0.00469624 -0.000568586 -0.000294445)
(-0.00252587 -0.000652336 -0.000292403)
(-0.000646333 -0.000474925 -0.000192693)
(-0.000258971 0.000822755 -7.99815e-05)
(-0.00116374 0.00125574 -5.85733e-05)
(-0.00239241 0.00135589 -5.16398e-05)
(-0.00358832 0.00138878 -4.45358e-05)
(-0.00481595 0.00140921 -4.13018e-05)
(-0.00604145 0.00142475 -4.01622e-05)
(-0.00725393 0.00142992 -4.08361e-05)
(-0.00843447 0.00141556 -4.38373e-05)
(-0.00955508 0.00136986 -5.00656e-05)
(-0.0105767 0.00127854 -6.05567e-05)
(-0.0114454 0.00112502 -7.64788e-05)
(-0.0120925 0.000890821 -9.91771e-05)
(-0.0124361 0.000559077 -0.00012957)
(-0.0123835 0.000119117 -0.000169436)
(-0.0118305 -0.000426464 -0.000215662)
(-0.0106855 -0.00105468 -0.000265623)
(-0.00888272 -0.00171017 -0.000311393)
(-0.00651385 -0.00228059 -0.000337318)
(-0.0035315 -0.00256661 -0.000334327)
(-0.000920745 -0.00192225 -0.000210396)
(-0.000278594 0.0017532 -0.000101193)
(-0.00125685 0.00260436 -8.2303e-05)
(-0.00258408 0.00279569 -7.53586e-05)
(-0.00387213 0.00284438 -6.68546e-05)
(-0.00519356 0.0028619 -6.19756e-05)
(-0.00651243 0.00286365 -5.89611e-05)
(-0.00781939 0.00284115 -5.76436e-05)
(-0.00909692 0.00277895 -5.86949e-05)
(-0.0103184 0.00265652 -6.32448e-05)
(-0.0114462 0.00244849 -7.27554e-05)
(-0.0124285 0.00212534 -8.87326e-05)
(-0.013196 0.00165411 -0.000112843)
(-0.0136581 0.0010041 -0.000147211)
(-0.0137049 0.000155366 -0.000193248)
(-0.0132128 -0.000890533 -0.000250115)
(-0.0120621 -0.00209874 -0.000314257)
(-0.0101443 -0.00337017 -0.000376248)
(-0.00752601 -0.00449725 -0.000416639)
(-0.00413351 -0.00507061 -0.000420954)
(-0.00109447 -0.00386975 -0.000276791)
(-0.000274593 0.00266311 -0.000117573)
(-0.0012618 0.00393668 -0.000101564)
(-0.00261 0.00421913 -9.49733e-05)
(-0.00391905 0.00428596 -8.5775e-05)
(-0.00526911 0.00430683 -8.00479e-05)
(-0.00662531 0.0043056 -7.6082e-05)
(-0.00798323 0.00427129 -7.38337e-05)
(-0.00933049 0.00418294 -7.41268e-05)
(-0.0106464 0.00401187 -7.83013e-05)
(-0.0118985 0.00372127 -8.81859e-05)
(-0.0130388 0.00326693 -0.000106013)
(-0.0139981 0.00260016 -0.000134307)
(-0.0146813 0.00167205 -0.000175991)
(-0.0149639 0.000442996 -0.000234314)
(-0.0146907 -0.00110084 -0.000311555)
(-0.0136853 -0.00292607 -0.000401953)
(-0.0117616 -0.00489958 -0.000495911)
(-0.00891322 -0.00671687 -0.000567099)
(-0.00502322 -0.00770322 -0.000588792)
(-0.00137559 -0.00598454 -0.000419365)
(-0.000262714 0.00359553 -0.000130247)
(-0.00124167 0.00531277 -0.000116525)
(-0.00259369 0.00569307 -0.000110396)
(-0.0039092 0.00578356 -0.000101009)
(-0.00527623 0.00581584 -9.51968e-05)
(-0.0066624 0.00582398 -9.12958e-05)
(-0.00807029 0.00579604 -8.94147e-05)
(-0.00949515 0.00570706 -9.05792e-05)
(-0.0109254 0.00552158 -9.64212e-05)
(-0.0123385 0.00519233 -0.000109243)
(-0.0136946 0.00465931 -0.000132107)
(-0.014929 0.0038513 -0.000168918)
(-0.0159425 0.00269134 -0.000224204)
(-0.016591 0.00110817 -0.000302294)
(-0.0166818 -0.000941907 -0.000413716)
(-0.0159643 -0.00344952 -0.000550363)
(-0.0141351 -0.00626898 -0.000703713)
(-0.0110428 -0.00900076 -0.000841648)
(-0.00649216 -0.0106151 -0.00090981)
(-0.0018829 -0.00848029 -0.000720633)
(-0.000246509 0.00452774 -0.000142615)
(-0.00121003 0.0067067 -0.000130985)
(-0.00255989 0.00719263 -0.000125392)
(-0.00387611 0.00731424 -0.00011602)
(-0.00525512 0.0073695 -0.000110451)
(-0.00666749 0.00740511 -0.000107122)
(-0.00812444 0.00741044 -0.000106311)
(-0.00963111 0.00735881 -0.000109283)
(-0.0111884 0.00721029 -0.000118055)
(-0.0127886 0.00690897 -0.000135577)
(-0.0144075 0.0063798 -0.000166041)
(-0.015993 0.00552674 -0.000215294)
(-0.0174501 0.00423514 -0.000291004)
(-0.0186216 0.00238272 -0.000403165)
(-0.0192758 -0.000136638 -0.000565791)
(-0.0190702 -0.00335915 -0.000781648)
(-0.0175391 -0.00718873 -0.00104539)
(-0.0142626 -0.0111498 -0.00132313)
(-0.00892674 -0.0137372 -0.00151562)
(-0.0028145 -0.0115017 -0.00136871)
(-0.000225979 0.00545393 -0.000156699)
(-0.00116751 0.00811395 -0.000147446)
(-0.00250913 0.00871369 -0.00014241)
(-0.00381814 0.00887358 -0.000132972)
(-0.00519995 0.0089635 -0.000127557)
(-0.00662797 0.00904576 -0.000124775)
(-0.00812323 0.00911418 -0.000125141)
(-0.00970291 0.00914393 -0.000130226)
(-0.0113839 0.00909445 -0.000142543)
(-0.0131789 0.00890506 -0.000165927)
(-0.0150882 0.00848896 -0.000206153)
(-0.0170867 0.00772668 -0.000271881)
(-0.0191016 0.0064611 -0.000375771)
(-0.0209808 0.00450095 -0.000535643)
(-0.0224514 0.00164518 -0.000771005)
(-0.0230952 -0.00225607 -0.00112504)
(-0.0222566 -0.00720006 -0.0015924)
(-0.0190502 -0.0127292 -0.00215881)
(-0.0130161 -0.0167569 -0.00266492)
(-0.00458132 -0.0152198 -0.00283901)
(-0.000200723 0.0063707 -0.00017364)
(-0.00111314 0.00953304 -0.000167341)
(-0.00243875 0.0102534 -0.000162763)
(-0.00372862 0.0104559 -0.000152904)
(-0.00509782 0.0105888 -0.000147184)
(-0.00652153 0.0107339 -0.000144478)
(-0.00803096 0.0108934 -0.000145601)
(-0.00965665 0.0110492 -0.000152527)
(-0.0114346 0.0111666 -0.0001684)
(-0.0134034 0.0111881 -0.000198154)
(-0.0155978 0.011024 -0.000249656)
(-0.0180364 0.0105404 -0.000335495)
(-0.0206961 0.00954518 -0.000475592)
(-0.023465 0.00777442 -0.000699631)
(-0.0260798 0.0048971 -0.00105073)
(-0.0280479 0.000569034 -0.00160081)
(-0.0285323 -0.00540359 -0.00243308)
(-0.026012 -0.0126881 -0.00357616)
(-0.0199571 -0.0187487 -0.0048819)
(-0.00806944 -0.0195231 -0.00627877)
(-0.00017097 0.00727575 -0.000194572)
(-0.00104792 0.0109633 -0.000192095)
(-0.00234909 0.0118076 -0.000187706)
(-0.00360435 0.0120512 -0.000176743)
(-0.00493921 0.0122285 -0.000169827)
(-0.00632864 0.0124453 -0.00016622)
(-0.00781322 0.0127166 -0.000167083)
(-0.00943631 0.0130367 -0.000174819)
(-0.0112535 0.013385 -0.000193272)
(-0.0133325 0.0137187 -0.000228624)
(-0.0157505 0.0139608 -0.000291062)
(-0.0185855 0.0139822 -0.000397714)
(-0.0218957 0.0135764 -0.000577813)
(-0.0256723 0.0124269 -0.000880305)
(-0.0297414 0.0100782 -0.00138206)
(-0.0336392 0.00595157 -0.00220541)
(-0.0364087 -0.000540625 -0.00363278)
(-0.0358445 -0.00923241 -0.00583647)
(-0.0313683 -0.0176366 -0.0087878)
(-0.0146996 -0.0234445 -0.0131131)
(-0.000138074 0.00817087 -0.000221129)
(-0.000976918 0.0124087 -0.000223812)
(-0.00224711 0.013374 -0.000219174)
(-0.00345013 0.0136483 -0.000206027)
(-0.00472381 0.01386 -0.000196444)
(-0.00603962 0.0141445 -0.000190284)
(-0.00744569 0.0145342 -0.000189124)
(-0.00899586 0.015042 -0.000195841)
(-0.0107624 0.0156705 -0.000214986)
(-0.0128404 0.0164064 -0.000253949)
(-0.0153518 0.0172081 -0.000325356)
(-0.0184461 0.0179855 -0.000451313)
(-0.022291 0.0185674 -0.000671072)
(-0.0270343 0.0186489 -0.00105461)
(-0.0327191 0.0177353 -0.00172042)
(-0.0391546 0.0150734 -0.00287725)
(-0.0453426 0.00964338 -0.00494701)
(-0.0483433 0.000789807 -0.00839635)
(-0.0471845 -0.0107802 -0.0126039)
(-0.0246052 -0.03005 -0.0200615)
(-0.000104772 0.00906521 -0.000255805)
(-0.000910746 0.0138761 -0.000264551)
(-0.0021492 0.0149443 -0.000258035)
(-0.00328285 0.0152227 -0.000240508)
(-0.00446608 0.0154422 -0.000226305)
(-0.00566138 0.0157733 -0.000215771)
(-0.00692237 0.0162672 -0.000210376)
(-0.00830808 0.01696 -0.000213274)
(-0.00989905 0.0178847 -0.00022953)
(-0.0118076 0.0190694 -0.000267078)
(-0.014188 0.0205299 -0.00033964)
(-0.0172495 0.0222524 -0.000470791)
(-0.0212709 0.0241669 -0.000702577)
(-0.0265901 0.0260762 -0.00110715)
(-0.0335734 0.0275983 -0.00179557)
(-0.0425621 0.0279068 -0.00295545)
(-0.0529637 0.0254066 -0.00500953)
(-0.0609528 0.0156549 -0.00739412)
(-0.0658848 -0.00740578 -0.00635293)
(-0.0364816 -0.0556305 -0.0119466)
(-8.0342e-05 0.0100028 -0.000306739)
(-0.000879334 0.0154603 -0.000328937)
(-0.00209545 0.0166232 -0.000321206)
(-0.00314064 0.0168985 -0.00029853)
(-0.00419892 0.0170708 -0.00027406)
(-0.0052216 0.0173828 -0.000252431)
(-0.00626532 0.0179101 -0.000236857)
(-0.00738582 0.0187263 -0.000231255)
(-0.00866214 0.0199063 -0.000240645)
(-0.0102069 0.0215348 -0.000273154)
(-0.0121846 0.0237088 -0.000342124)
(-0.0148322 0.0265293 -0.000467057)
(-0.0185092 0.0301031 -0.000678568)
(-0.0237061 0.0344142 -0.000999764)
(-0.0311844 0.0392634 -0.00137801)
(-0.0420043 0.0433842 -0.00148905)
(-0.0577718 0.0434669 -0.000623181)
(-0.0757791 0.0260419 0.00429125)
(-0.0901065 -0.029405 0.0176736)
(-0.0441668 -0.125257 0.00979919)
(-3.60487e-05 0.0109337 -0.000370444)
(-0.000846321 0.0168828 -0.000387203)
(-0.00207109 0.0180063 -0.000368341)
(-0.0030451 0.0180872 -0.000329007)
(-0.00400859 0.0181512 -0.000293184)
(-0.00482838 0.0184418 -0.000263671)
(-0.00558441 0.0190271 -0.000240977)
(-0.0063179 0.0199718 -0.000227131)
(-0.00709676 0.0213641 -0.000225837)
(-0.0080111 0.0233289 -0.000243193)
(-0.00919821 0.0260534 -0.000286444)
(-0.010854 0.0297493 -0.000355357)
(-0.0133738 0.0347811 -0.0004415)
(-0.0173822 0.0412365 -0.000419818)
(-0.0243953 0.0494527 0.000158411)
(-0.0367694 0.0569895 0.00269917)
(-0.06182 0.0578456 0.00970079)
(-0.0960413 0.0176021 0.0243517)
(-0.107139 -0.111565 0.0378567)
(-0.0348151 -0.225551 0.0062696)
(-0.000186221 0.012199 -0.000511622)
(-0.00120497 0.0192799 -0.000574101)
(-0.00244039 0.0204261 -0.000549146)
(-0.00324082 0.0206307 -0.000503936)
(-0.0038782 0.0204149 -0.000438032)
(-0.00435301 0.0204301 -0.000377089)
(-0.00473775 0.0207059 -0.000320804)
(-0.0050482 0.0214074 -0.000277079)
(-0.00530164 0.0226687 -0.000250157)
(-0.00551051 0.0246617 -0.000243312)
(-0.00575074 0.027665 -0.000266656)
(-0.00606766 0.0319357 -0.000287797)
(-0.00693762 0.0382697 -0.00027487)
(-0.00867128 0.0464988 0.000158121)
(-0.0139512 0.0586079 0.00187839)
(-0.0255417 0.0683903 0.00768629)
(-0.0586202 0.064724 0.0204523)
(-0.0991148 -0.0229349 0.0349454)
(-0.0962721 -0.216412 0.0281628)
(-0.0374454 -0.285343 -0.0169767)
(0.000171445 0.0140635 -0.000694079)
(-0.000874281 0.02043 -0.00067959)
(-0.00240193 0.0210412 -0.000613024)
(-0.00327881 0.0201757 -0.000499778)
(-0.00421863 0.0196619 -0.000401893)
(-0.00452233 0.01957 -0.000323264)
(-0.00459145 0.019915 -0.000257072)
(-0.00434017 0.020713 -0.000204663)
(-0.00382878 0.0220565 -0.000168113)
(-0.00300203 0.0240587 -0.000140157)
(-0.00191705 0.0270794 -0.000143513)
(-0.000220548 0.0312856 -6.82307e-05)
(0.00127349 0.0378032 3.08391e-05)
(0.00384771 0.046212 0.000960375)
(0.00209211 0.0598093 0.00345179)
(-0.0029084 0.0698881 0.0113798)
(-0.035674 0.0585567 0.0253967)
(-0.0675856 -0.0676607 0.0298931)
(-0.0796363 -0.254388 0.0121722)
(-0.0476751 -0.339534 -0.022415)
(-0.00182041 0.0143396 -0.0010346)
(-0.00402886 0.0253617 -0.00106579)
(-0.00467979 0.0257803 -0.00102544)
(-0.00493913 0.0260484 -0.000970205)
(-0.00455998 0.0245144 -0.000802728)
(-0.00413722 0.0236078 -0.000646322)
(-0.00361117 0.02282 -0.000494393)
(-0.00290198 0.0225947 -0.000369097)
(-0.00192992 0.0229685 -0.00027922)
(-0.000434157 0.0240465 -0.000198928)
(0.0015691 0.0261585 -0.000201872)
(0.00487506 0.0293951 -0.000109698)
(0.00844439 0.0350257 -5.69603e-06)
(0.0153315 0.0423024 0.000756595)
(0.018174 0.0554242 0.00365925)
(0.0265037 0.065709 0.0108011)
(0.00324868 0.0502387 0.0230429)
(-0.0119982 -0.0819212 0.0207997)
(-0.0639014 -0.253487 0.0102468)
(-0.0312674 -0.384454 -0.0315337)
(0.00248871 0.0251032 -0.002545)
(0.000461894 0.0246269 -0.00230437)
(-0.00415791 0.0238127 -0.00145327)
(-0.00489361 0.0204221 -0.000933823)
(-0.00660208 0.0191123 -0.000630983)
(-0.00604901 0.0184519 -0.000433551)
(-0.00542193 0.0183294 -0.000261632)
(-0.00400634 0.018485 -0.000115484)
(-0.00219123 0.0190524 -2.92792e-05)
(0.000373212 0.0198326 5.99867e-05)
(0.00359428 0.0213935 1.30057e-06)
(0.00880634 0.0233096 -1.16151e-05)
(0.0143399 0.0269777 1.29356e-05)
(0.0257184 0.0309056 0.000321617)
(0.0329758 0.0382595 0.00215748)
(0.0546694 0.0439046 0.00747835)
(0.0470436 0.0309272 0.0163597)
(0.0420396 -0.0741572 0.0164925)
(-0.0380021 -0.239913 0.0115731)
(-0.0168598 -0.383683 -0.0371481)
(-0.00637875 0.0148347 -0.00153452)
(-0.0111789 0.0424404 -0.00166716)
(-0.0057992 0.0374442 -0.00199195)
(-0.0080316 0.0359819 -0.00243076)
(-0.00659688 0.0307594 -0.00196671)
(-0.00553563 0.027599 -0.00143125)
(-0.00398977 0.0245752 -0.000923006)
(-0.00200726 0.0224638 -0.000489516)
(0.000270498 0.0210187 -0.000241545)
(0.00351031 0.0199493 1.52016e-05)
(0.00713717 0.0195335 -8.63878e-05)
(0.0130792 0.0192167 -0.000139266)
(0.018608 0.0204021 -0.000512677)
(0.0306784 0.0207737 -0.000273615)
(0.0361073 0.0252313 -0.000423974)
(0.0611636 0.0237928 0.00376184)
(0.0540631 0.0242486 0.00795083)
(0.0856513 -0.0434999 0.00888294)
(0.00165311 -0.207628 0.0110672)
(0.00154649 -0.373966 -0.0379498)
(-0.0506815 0.0563223 -0.011731)
(-0.0283694 0.0224482 -0.00612887)
(-0.0370326 0.02413 -0.00391133)
(-0.0197279 0.0222611 -0.00271441)
(-0.0117381 0.0182546 -0.00198657)
(0.00118362 0.015991 -0.0010787)
(0.0106167 0.0144783 -0.000449876)
(0.020976 0.0128906 0.00021671)
(0.0289786 0.0121707 0.000418545)
(0.0386954 0.0108049 0.000802047)
(0.044545 0.0108197 0.000639096)
(0.0561897 0.00950136 0.000594414)
(0.0592224 0.0100863 -0.00023529)
(0.079298 0.00839061 -0.000129627)
(0.0742356 0.00768564 -0.00229089)
(0.118513 0.000800802 -0.000337495)
(0.0905753 -0.0154444 0.00393237)
(0.153842 -0.0671147 0.00254304)
(0.0695392 -0.204334 0.0108005)
(0.0471746 -0.340203 -0.0476152)
(0.0891615 0.103683 -0.00874078)
(0.113365 0.05597 -0.0084651)
(0.166456 0.0394298 -0.00863709)
(0.205482 0.0267227 -0.00803137)
(0.23169 0.0191238 -0.00733033)
(0.259384 0.0133146 -0.00643619)
(0.274885 0.00979216 -0.00600358)
(0.299293 0.0070332 -0.00516645)
(0.305557 0.00567436 -0.00454829)
(0.330655 0.0040661 -0.0045063)
(0.328641 0.00365825 -0.00312914)
(0.357206 0.00293522 -0.00392829)
(0.346403 0.00245017 -0.00240401)
(0.381707 0.00236525 -0.0037265)
(0.358964 0.00121573 -0.0014703)
(0.401273 -0.00125072 -0.00477207)
(0.356499 -0.00721866 0.000271321)
(0.384802 -0.0249118 -0.00581126)
(0.254494 -0.0601731 0.00196496)
(0.148459 -0.116084 -0.0591539)
(-0.000225643 0.000231712 -6.9151e-05)
(-0.00111943 0.000426629 -3.71626e-05)
(-0.00238146 0.000471849 -2.66771e-05)
(-0.00359527 0.000484838 -2.01497e-05)
(-0.00483398 0.000492914 -2.15028e-05)
(-0.00606473 0.000500302 -2.83653e-05)
(-0.00727793 0.000504381 -4.04829e-05)
(-0.00845467 0.0005011 -5.87627e-05)
(-0.00956601 0.000485453 -8.46742e-05)
(-0.0105716 0.000451496 -0.000120001)
(-0.0114172 0.000392547 -0.000166643)
(-0.0120339 0.000302341 -0.000226312)
(-0.0123394 0.000175008 -0.00030008)
(-0.0122398 4.45022e-06 -0.000388171)
(-0.0116382 -0.000209476 -0.000486768)
(-0.0104543 -0.000456171 -0.000589079)
(-0.0086294 -0.000711853 -0.000681896)
(-0.00626401 -0.000926784 -0.000741582)
(-0.0033089 -0.00100989 -0.000751423)
(-0.000818632 -0.000673173 -0.000557915)
(-0.000437567 0.00117947 -0.000158175)
(-0.00193473 0.00193849 -0.000138169)
(-0.00394604 0.00210652 -0.000127491)
(-0.0058765 0.0021331 -0.00011544)
(-0.00781777 0.00212633 -0.000110818)
(-0.00971319 0.00210293 -0.00011136)
(-0.0115409 0.00205606 -0.000117169)
(-0.0132688 0.00197345 -0.000129648)
(-0.014853 0.00183947 -0.000150892)
(-0.0162366 0.00163554 -0.000183424)
(-0.0173463 0.00134071 -0.00023)
(-0.0180919 0.000932399 -0.000293327)
(-0.0183717 0.00039097 -0.000375337)
(-0.0180697 -0.000292984 -0.000478623)
(-0.0170623 -0.00111125 -0.000596192)
(-0.015248 -0.00202673 -0.000721123)
(-0.0125563 -0.00295586 -0.000836744)
(-0.00911776 -0.00372595 -0.000913002)
(-0.00487319 -0.0040012 -0.000925719)
(-0.00124382 -0.0027696 -0.000672338)
(-0.000490362 0.00255105 -0.000196542)
(-0.00215812 0.0040368 -0.000182793)
(-0.00438724 0.00435569 -0.000172)
(-0.00651952 0.00438356 -0.00015725)
(-0.00865847 0.0043357 -0.000149646)
(-0.0107423 0.00424536 -0.000147011)
(-0.0127495 0.0041027 -0.000149737)
(-0.0146484 0.00388748 -0.000159625)
(-0.0163959 0.00357297 -0.000179334)
(-0.0179356 0.00312657 -0.000212197)
(-0.0191955 0.00251112 -0.000261882)
(-0.020084 0.0016869 -0.000332318)
(-0.0204866 0.000618991 -0.00042759)
(-0.0202683 -0.000710852 -0.000549915)
(-0.0192816 -0.00229481 -0.000696381)
(-0.0173878 -0.00406936 -0.000858582)
(-0.0144655 -0.00588377 -0.00101663)
(-0.0106148 -0.00741262 -0.0011323)
(-0.00574571 -0.00797358 -0.00116688)
(-0.00149041 -0.00564389 -0.000866355)
(-0.000497613 0.00389299 -0.000228344)
(-0.00221371 0.00611437 -0.000221375)
(-0.00451522 0.00658322 -0.000211131)
(-0.00671625 0.00661432 -0.000194861)
(-0.00893203 0.00653313 -0.000185538)
(-0.0111014 0.00638995 -0.000181152)
(-0.0132091 0.00617226 -0.000182433)
(-0.0152294 0.00585246 -0.000191627)
(-0.0171263 0.00539301 -0.000212033)
(-0.0188498 0.00474648 -0.000247983)
(-0.0203313 0.0038569 -0.000304736)
(-0.0214782 0.00266423 -0.000388261)
(-0.0221684 0.00111127 -0.000505169)
(-0.0222479 -0.000843442 -0.000662088)
(-0.0215221 -0.00321194 -0.00086032)
(-0.0197773 -0.00592192 -0.00109016)
(-0.0167934 -0.00876646 -0.00132968)
(-0.0125737 -0.0112597 -0.00152565)
(-0.00698351 -0.0122761 -0.00160879)
(-0.00187395 -0.00885817 -0.00124397)
(-0.000493156 0.00527128 -0.000255449)
(-0.00223133 0.00826446 -0.000254648)
(-0.00457919 0.00889295 -0.000245193)
(-0.00682777 0.00893389 -0.000228218)
(-0.00910457 0.00882913 -0.000218383)
(-0.0113514 0.00864829 -0.000213859)
(-0.0135625 0.00837792 -0.000215796)
(-0.0157219 0.00798459 -0.000227023)
(-0.017805 0.00742102 -0.000251705)
(-0.0197737 0.00662496 -0.000295526)
(-0.0215688 0.00551882 -0.000365915)
(-0.0231006 0.00401243 -0.000472164)
(-0.0242377 0.00201127 -0.000625034)
(-0.0248031 -0.000568048 -0.00083562)
(-0.0245459 -0.00377139 -0.00111756)
(-0.0231473 -0.00756033 -0.0014623)
(-0.0202376 -0.0116932 -0.00184833)
(-0.0156202 -0.0155167 -0.00220764)
(-0.00907902 -0.0173079 -0.00240302)
(-0.00259219 -0.0128967 -0.00196687)
(-0.000485345 0.00666083 -0.00028329)
(-0.00224236 0.0104598 -0.000288772)
(-0.00463666 0.0112595 -0.000280216)
(-0.00693332 0.0113195 -0.000262769)
(-0.00927318 0.0112057 -0.000252838)
(-0.011602 0.0110102 -0.000248869)
(-0.0139259 0.0107212 -0.000252487)
(-0.0162422 0.0103019 -0.000267203)
(-0.0185427 0.00969759 -0.000298264)
(-0.0208079 0.00883207 -0.000353127)
(-0.0229972 0.00760487 -0.000442143)
(-0.0250351 0.00588973 -0.000579356)
(-0.0267935 0.00353867 -0.000782653)
(-0.0280719 0.000396509 -0.00107238)
(-0.0285672 -0.00365542 -0.00148399)
(-0.0278358 -0.00867239 -0.00201833)
(-0.0252905 -0.0144402 -0.0026651)
(-0.0203733 -0.0201541 -0.00334664)
(-0.0127548 -0.0232924 -0.00381189)
(-0.00401863 -0.0184238 -0.00337642)
(-0.000475033 0.0080601 -0.000315485)
(-0.00225095 0.0127029 -0.000328266)
(-0.0046944 0.0136862 -0.000320558)
(-0.00703904 0.0137741 -0.000302279)
(-0.00944047 0.0136661 -0.00029183)
(-0.0118487 0.0134806 -0.000288046)
(-0.0142836 0.0132114 -0.000293135)
(-0.0167596 0.0128226 -0.00031141)
(-0.0192902 0.0122555 -0.000349425)
(-0.0218829 0.0114236 -0.000416892)
(-0.0245288 0.0102048 -0.000528065)
(-0.0271859 0.00843406 -0.00070374)
(-0.0297519 0.00589767 -0.000973468)
(-0.0320239 0.00234096 -0.00137873)
(-0.0336713 -0.00249792 -0.00196699)
(-0.0341357 -0.00882798 -0.00281069)
(-0.0325658 -0.0166048 -0.00391852)
(-0.0278301 -0.0249531 -0.00523427)
(-0.019558 -0.0304569 -0.00634289)
(-0.00713197 -0.026972 -0.00633403)
(-0.000461861 0.00946976 -0.000354565)
(-0.00225662 0.0149995 -0.000376321)
(-0.00475042 0.0161774 -0.000369128)
(-0.00713811 0.0162984 -0.000349051)
(-0.00959159 0.0162069 -0.000336848)
(-0.0120642 0.0160532 -0.000331876)
(-0.0145913 0.0158416 -0.000337012)
(-0.017207 0.0155428 -0.000357486)
(-0.0199525 0.0151018 -0.000401348)
(-0.0228718 0.01443 -0.000480944)
(-0.026003 0.0133919 -0.000615446)
(-0.0293627 0.0117896 -0.000834764)
(-0.0329131 0.0093435 -0.00118508)
(-0.0365083 0.00567527 -0.00173432)
(-0.0398352 0.000313363 -0.00257615)
(-0.0423079 -0.00720632 -0.0038753)
(-0.0428745 -0.0172405 -0.00577898)
(-0.039727 -0.0290265 -0.00830576)
(-0.0327499 -0.038716 -0.010944)
(-0.0144654 -0.0415855 -0.0126792)
(-0.00044624 0.0108907 -0.000403375)
(-0.00226097 0.0173546 -0.00043646)
(-0.00480555 0.0187338 -0.000429037)
(-0.00722645 0.0188856 -0.000405458)
(-0.00971363 0.0188134 -0.000389308)
(-0.0122218 0.0187053 -0.000380634)
(-0.0148019 0.018582 -0.000383004)
(-0.0175089 0.0184284 -0.000402512)
(-0.0204148 0.0182034 -0.00044864)
(-0.0236078 0.0178291 -0.000536379)
(-0.0271883 0.0171734 -0.000689984)
(-0.0312595 0.0160231 -0.000949512)
(-0.0359027 0.014048 -0.00138209)
(-0.0411219 0.0107525 -0.00209813)
(-0.0467486 0.00544307 -0.00327462)
(-0.0524264 -0.00273414 -0.00519154)
(-0.0571613 -0.0146511 -0.00835012)
(-0.0586189 -0.0302096 -0.0129153)
(-0.0565735 -0.047013 -0.0180127)
(-0.0288384 -0.0693127 -0.0226002)
(-0.000430204 0.0123282 -0.000466099)
(-0.00227095 0.0197793 -0.000513853)
(-0.00486895 0.0213594 -0.000505029)
(-0.00730955 0.0215293 -0.000475352)
(-0.00980388 0.0214647 -0.000451791)
(-0.0123046 0.0214004 -0.000435413)
(-0.0148771 0.021381 -0.000430543)
(-0.0175966 0.021414 -0.000444025)
(-0.0205654 0.0214847 -0.000486509)
(-0.023919 0.0215454 -0.000575143)
(-0.027832 0.0214951 -0.000738744)
(-0.032521 0.0211461 -0.00102729)
(-0.0382391 0.020173 -0.00152989)
(-0.045244 0.0180388 -0.00240538)
(-0.0537569 0.0139329 -0.00392587)
(-0.063982 0.00669469 -0.00655351)
(-0.0753613 -0.00540075 -0.0109726)
(-0.0841623 -0.024964 -0.016655)
(-0.0872324 -0.0579964 -0.0194229)
(-0.0393856 -0.129715 -0.0214293)
(-0.00041675 0.0137913 -0.000548828)
(-0.00229843 0.0222728 -0.000613712)
(-0.00495988 0.0240295 -0.00059997)
(-0.00740748 0.02418 -0.000559445)
(-0.00987836 0.0240951 -0.000524085)
(-0.0123156 0.0240586 -0.000495524)
(-0.0147981 0.0241394 -0.000477902)
(-0.0174167 0.0243748 -0.000478176)
(-0.0202967 0.0247876 -0.000507383)
(-0.0236128 0.0253779 -0.000582863)
(-0.027606 0.026106 -0.000734049)
(-0.0326069 0.026862 -0.00101362)
(-0.0390661 0.0274142 -0.00152002)
(-0.0475673 0.0273356 -0.00243131)
(-0.0589033 0.025961 -0.00403137)
(-0.0742066 0.021979 -0.00663769)
(-0.0923906 0.0112856 -0.00974695)
(-0.104017 -0.0192399 -0.00791329)
(-0.104508 -0.0903062 0.00787528)
(-0.0254573 -0.220324 0.0058256)
(-0.000423793 0.0153479 -0.000668033)
(-0.00239426 0.0250101 -0.000764243)
(-0.00513818 0.0269479 -0.000745883)
(-0.00756765 0.0270783 -0.000691832)
(-0.00996471 0.0268961 -0.000633752)
(-0.0122706 0.026795 -0.000580007)
(-0.0145704 0.0268862 -0.000537399)
(-0.0169594 0.0272613 -0.000513937)
(-0.0195753 0.0280002 -0.0005197)
(-0.0226166 0.0291759 -0.000570835)
(-0.0263695 0.030852 -0.000693849)
(-0.0312494 0.0330651 -0.000933768)
(-0.0378635 0.0357946 -0.00137057)
(-0.0470262 0.0388692 -0.00209635)
(-0.0598851 0.0417718 -0.0030307)
(-0.0777424 0.0417966 -0.00300874)
(-0.0987049 0.0288595 0.00284449)
(-0.108152 -0.0240021 0.0257067)
(-0.105132 -0.13747 0.0598161)
(-0.00824353 -0.281927 0.0186696)
(-0.000386392 0.0168694 -0.000821275)
(-0.00244985 0.0274269 -0.000919139)
(-0.00534697 0.0293457 -0.000877951)
(-0.00780963 0.0291796 -0.000789098)
(-0.0102008 0.0288651 -0.000704993)
(-0.0123346 0.0287506 -0.000628963)
(-0.0143402 0.0289422 -0.000564213)
(-0.0163111 0.0295165 -0.000514576)
(-0.0183889 0.0305786 -0.000486532)
(-0.0207637 0.0322663 -0.000489811)
(-0.0237117 0.0347604 -0.00053747)
(-0.0276495 0.0382704 -0.000637356)
(-0.033252 0.0430702 -0.000790314)
(-0.0414634 0.0492175 -0.000790156)
(-0.0538094 0.0562592 0.000420337)
(-0.0713446 0.0586072 0.00700642)
(-0.0932584 0.040941 0.0279983)
(-0.103631 -0.0345848 0.067048)
(-0.0983783 -0.188102 0.0796102)
(-0.00583187 -0.327285 -0.00326285)
(-0.000678915 0.0188691 -0.00111028)
(-0.00319939 0.0314848 -0.00128956)
(-0.00618061 0.033551 -0.00123534)
(-0.00846636 0.0335754 -0.00113192)
(-0.0104515 0.0328168 -0.000992598)
(-0.0122118 0.0322616 -0.000856422)
(-0.0138145 0.0319978 -0.00072564)
(-0.0153274 0.0322564 -0.000613695)
(-0.0168248 0.0332151 -0.000527006)
(-0.0184274 0.0351014 -0.000470337)
(-0.0203466 0.0382204 -0.000454094)
(-0.0228896 0.0429637 -0.000430517)
(-0.0267233 0.0500021 -0.0003072)
(-0.0324095 0.0593299 0.000667423)
(-0.0416755 0.0707433 0.00470369)
(-0.0539161 0.073742 0.0183977)
(-0.0743104 0.0521851 0.0492414)
(-0.083114 -0.0501373 0.0801275)
(-0.0764276 -0.23564 0.0492075)
(-0.00303553 -0.378662 -0.0119739)
(-8.52188e-06 0.0214842 -0.00151459)
(-0.002385 0.0330881 -0.00162044)
(-0.00621291 0.0343924 -0.00147201)
(-0.00888039 0.0328748 -0.0012357)
(-0.0115145 0.0319397 -0.00102643)
(-0.0131172 0.0314277 -0.000842296)
(-0.0143132 0.031439 -0.000677719)
(-0.0150659 0.0319815 -0.000531227)
(-0.0155224 0.033207 -0.000405342)
(-0.0157459 0.0353244 -0.000288634)
(-0.0158513 0.0387293 -0.000197229)
(-0.015829 0.0438083 3.35907e-05)
(-0.0163985 0.0515872 0.000458463)
(-0.0168123 0.0614367 0.0024913)
(-0.0208422 0.0747804 0.00834057)
(-0.0225923 0.077361 0.0254324)
(-0.0393765 0.0556353 0.0554725)
(-0.0379731 -0.0642517 0.0651081)
(-0.0527082 -0.245242 0.0177707)
(0.0083535 -0.410245 -0.0163692)
(-0.0031702 0.0211476 -0.00202156)
(-0.00748916 0.0406982 -0.00215804)
(-0.0095385 0.0424464 -0.00214562)
(-0.0113316 0.0426122 -0.00203628)
(-0.0120441 0.0399805 -0.00173396)
(-0.0128381 0.0381015 -0.00142812)
(-0.0133442 0.0364302 -0.00111947)
(-0.0135958 0.0355839 -0.000846102)
(-0.0134712 0.0355965 -0.000618344)
(-0.0128342 0.0367257 -0.000407287)
(-0.0116804 0.0393133 -0.000286743)
(-0.00949596 0.0437495 1.39209e-05)
(-0.00740097 0.0515505 0.000484355)
(-0.00212022 0.0613047 0.00260073)
(-0.000822636 0.0759747 0.0087622)
(0.0114121 0.0800268 0.0240017)
(0.00125059 0.0586972 0.0466574)
(0.0204369 -0.0565767 0.0438651)
(-0.0353373 -0.236307 0.0104441)
(0.027051 -0.424738 -0.0297013)
(0.00289443 0.0359113 -0.00462111)
(-0.00199769 0.0388015 -0.00449802)
(-0.0113752 0.0379521 -0.00310167)
(-0.0131654 0.0329554 -0.00220268)
(-0.0162905 0.0315299 -0.00167079)
(-0.0163319 0.0306566 -0.0012819)
(-0.0163891 0.0303975 -0.000927369)
(-0.0154821 0.0304279 -0.000597487)
(-0.0140381 0.030946 -0.0003427)
(-0.0117753 0.0319704 -9.00251e-05)
(-0.00866635 0.0340426 -1.24728e-05)
(-0.00337131 0.0370882 0.000210186)
(0.00219566 0.0426836 0.000491071)
(0.0141981 0.0494261 0.00179594)
(0.0224685 0.0580477 0.00567839)
(0.0474067 0.0613609 0.0165195)
(0.0488592 0.0406543 0.0309579)
(0.070105 -0.045344 0.0315489)
(-0.0117546 -0.216383 0.0162515)
(0.0511484 -0.423228 -0.0280765)
(-0.00296476 0.0162787 -0.00322243)
(-0.00522593 0.0602935 -0.00359913)
(-1.17758e-05 0.0573011 -0.00403965)
(-0.0084082 0.055415 -0.00458133)
(-0.0108588 0.0485791 -0.00383831)
(-0.0137735 0.0443593 -0.00296695)
(-0.0148284 0.0402075 -0.00209408)
(-0.0146611 0.0374241 -0.0013268)
(-0.0132958 0.0351832 -0.000797545)
(-0.0104829 0.0338037 -0.000298556)
(-0.00666742 0.0330661 -0.000281546)
(-0.000178243 0.0332977 -9.50984e-05)
(0.00667328 0.0353353 -0.000451511)
(0.0196125 0.0384429 0.000565455)
(0.0288709 0.0452513 0.00103269)
(0.055363 0.0463644 0.00984948)
(0.0546267 0.0398211 0.0140416)
(0.0980382 -0.00237409 0.0139343)
(0.0354708 -0.175713 0.0178431)
(0.0843083 -0.398392 -0.03245)
(-0.0772908 0.0555979 -0.0158817)
(-0.0563315 0.0325955 -0.00843326)
(-0.0757914 0.0399005 -0.00595384)
(-0.0544358 0.0375958 -0.00469604)
(-0.0490062 0.0327472 -0.00361956)
(-0.0337587 0.0302624 -0.00224795)
(-0.0222638 0.0279028 -0.00135311)
(-0.00958697 0.0256421 -0.000354378)
(0.00257866 0.0241678 5.61712e-05)
(0.0146479 0.0223066 0.000750767)
(0.0260656 0.0215274 0.000647793)
(0.0394121 0.0202872 0.000691587)
(0.0488162 0.0199869 -0.000513861)
(0.0690619 0.0202875 0.000432572)
(0.0740411 0.0172473 -0.00373633)
(0.114837 0.0186829 0.00062542)
(0.107255 -0.00822131 0.00889397)
(0.167444 -0.0419431 -0.0014471)
(0.125238 -0.196878 0.0155151)
(0.13751 -0.367287 -0.0422575)
(0.0838593 0.122828 -0.0120013)
(0.113222 0.0739228 -0.011827)
(0.165504 0.0562266 -0.0121264)
(0.211427 0.0425036 -0.0113934)
(0.240661 0.0338824 -0.0106558)
(0.2751 0.0272245 -0.00975355)
(0.294136 0.0224351 -0.00897064)
(0.32492 0.0193151 -0.00845802)
(0.336839 0.0161372 -0.00703147)
(0.366293 0.0148309 -0.00782038)
(0.371777 0.0125398 -0.00515085)
(0.403437 0.0121055 -0.00719725)
(0.400962 0.0101779 -0.00386982)
(0.437322 0.0104349 -0.00751218)
(0.426064 0.00796511 -0.00203682)
(0.464703 0.00635155 -0.00942208)
(0.438965 -0.00017875 8.70567e-05)
(0.460303 -0.0169588 -0.0111925)
(0.36332 -0.0518635 0.000451068)
(0.258147 -0.116578 -0.0556026)
(-0.000239132 0.000234965 -8.90626e-05)
(-0.00120443 0.000450893 -8.89814e-05)
(-0.00257162 0.000500879 -8.46322e-05)
(-0.00387921 0.000513635 -8.10949e-05)
(-0.00520785 0.000519988 -8.37426e-05)
(-0.00652127 0.000524983 -9.21713e-05)
(-0.00780934 0.000525924 -0.000107065)
(-0.00905201 0.00051859 -0.000129844)
(-0.0102189 0.000497767 -0.0001624)
(-0.0112682 0.000457196 -0.000206933)
(-0.0121438 0.000389851 -0.00026577)
(-0.0127747 0.000289198 -0.000340982)
(-0.0130758 0.000148951 -0.000433823)
(-0.0129497 -3.85548e-05 -0.000543439)
(-0.012296 -0.000271916 -0.000665458)