/*--------------------------------*- C++ -*----------------------------------*\
  =========                 |
  \\      /  F ield         | OpenFOAM: The Open Source CFD Toolbox
   \\    /   O peration     | Website:  https://openfoam.org
    \\  /    A nd           | Version:  9
     \\/     M anipulation  |
\*---------------------------------------------------------------------------*/
FoamFile
{
    format      ascii;
    class       volScalarField;
    location    "1";
    object      p;
}
// * * * * * * * * * * * * * * * * * * * * * * * * * * * * * * * * * * * * * //

dimensions      [0 2 -2 0 0 0 0];

internalField   nonuniform List<scalar> 
8000
(
5.94532e-07
3.66071e-05
0.000119527
0.000245377
0.000411261
0.000613151
0.00084612
0.00110449
0.00138197
0.00167177
0.00196674
0.00225952
0.00254267
0.00280888
0.00305107
0.00326266
0.00343773
0.00357129
0.00365956
0.00369778
-3.37953e-05
2.41144e-06
8.6767e-05
0.000214897
0.000383816
0.000589403
0.000826643
0.00108976
0.00137237
0.00166757
0.00196811
0.00226652
0.00255523
0.00282678
0.00307396
0.00329001
0.00346886
0.00360537
0.00369565
0.00373471
-0.000118174
-8.05309e-05
7.51746e-06
0.00014131
0.000317684
0.000532309
0.000779939
0.00105457
0.00134956
0.00165777
0.00197171
0.00228361
0.00258563
0.00286999
0.00312911
0.00335588
0.00354381
0.0036874
0.00378244
0.00382356
-0.000251748
-0.000211614
-0.000117628
2.51723e-05
0.00021336
0.00044227
0.000706297
0.000999057
0.00131354
0.00164222
0.00197722
0.00231036
0.00263337
0.00293794
0.00321596
0.00345971
0.00366209
0.00381697
0.00391963
0.00396411
-0.000438036
-0.000394349
-0.000291993
-0.000136556
6.81503e-05
0.000316976
0.000603799
0.000921717
0.0012632
0.00162023
0.0019844
0.00234701
0.00269917
0.00303194
0.00333644
0.00360409
0.0038269
0.00399783
0.00411135
0.00416067
-0.000681835
-0.00063342
-0.000519986
-0.000347885
-0.000121484
0.000153398
0.000469943
0.000820562
0.00119708
0.00159084
0.00199285
0.00239375
0.00278395
0.00315365
0.00349304
0.00379239
0.00404249
0.00423499
0.00436323
0.00441913
-0.000989506
-0.000935003
-0.000807374
-0.000614021
-0.000360093
-5.23238e-05
0.00030155
0.000693076
0.00111329
0.00155282
0.00200198
0.00245073
0.00288865
0.003305
0.00368878
0.00402885
0.00431432
0.00453507
0.00468272
0.00474741
-0.00136924
-0.00130701
-0.00116148
-0.000941495
-0.000653314
-0.000304915
9.47664e-05
0.000536207
0.00100952
0.00150456
0.00201092
0.00251788
0.00301419
0.00348808
0.00392718
0.00431859
0.00464924
0.00490652
0.0050796
0.00515597
-0.00183146
-0.00175941
-0.00159141
-0.0013383
-0.00100792
-0.000609958
-0.000154903
0.000346408
0.000883049
0.00144407
0.00201843
0.00259482
0.00316125
0.00370493
0.004212
0.00466747
0.00505547
0.00535994
0.00556642
0.00565846
-0.00238933
-0.0023047
-0.00210841
-0.00181408
-0.00143187
-0.000973833
-0.00045249
0.000119738
0.000730791
0.00136898
0.00202278
0.00268057
0.0033299
0.00395712
0.00454691
0.00508188
0.00554264
0.00590841
0.00615926
0.00627281
-0.00305973
-0.00295855
-0.00272626
-0.00238027
-0.00193426
-0.00140357
-0.000803352
-0.000147935
0.000549454
0.00127655
0.00202168
0.00277335
0.00351919
0.00424521
0.00493485
0.0055682
0.00612161
0.00656791
0.00687877
0.00702293
-0.00386453
-0.00374083
-0.00346195
-0.00305032
-0.00252521
-0.0019065
-0.00121275
-0.000460504
0.000335843
0.00116382
0.00201218
0.00287027
0.00372662
0.00456783
0.00537694
0.00613179
0.00680378
0.0073576
0.00775168
0.00794132
-0.00483261
-0.00467724
-0.00433656
-0.00383974
-0.00321551
-0.0024896
-0.00168502
-0.000820929
8.73985e-05
0.00102789
0.00199067
0.0029669
0.00394736
0.00492064
0.00587087
0.00677508
0.00759968
0.00829989
0.00881222
0.00907412
-0.00600599
-0.00580209
-0.00537656
-0.00476601
-0.00401569
-0.00315827
-0.00222268
-0.00123047
-0.000197206
0.000866379
0.00195296
0.00305704
0.00417336
0.00529467
0.00640873
0.00749436
0.00851548
0.00941924
0.0101012
0.0104931
-0.0074326
-0.00715477
-0.00661405
-0.00584746
-0.00493423
-0.00391483
-0.00282468
-0.00168714
-0.000516864
0.000678169
0.00189472
0.00313245
0.00439237
0.00567433
0.00697356
0.00827545
0.00954629
0.0107403
0.0116688
0.0123055
-0.00931394
-0.00881619
-0.00809706
-0.00710159
-0.00597552
-0.00475542
-0.00348373
-0.00218353
-0.000866339
0.000464636
0.00181223
0.00318307
0.00458732
0.00603547
0.00753527
0.00908601
0.0106646
0.0122735
0.0135638
0.0147339
-0.011242
-0.0107101
-0.00981568
-0.00852929
-0.00713025
-0.00566445
-0.00418267
-0.00270423
-0.0012347
0.000230571
0.00170275
0.0031977
0.00473582
0.00634128
0.00803916
0.00984882
0.0117623
0.0139214
0.0155637
0.017766
-0.0156264
-0.0133585
-0.0120819
-0.0101879
-0.00838363
-0.00660652
-0.00488419
-0.00321836
-0.00159933
-1.01159e-05
0.00157133
0.0031711
0.00482063
0.00656789
0.00847526
0.0106331
0.0130594
0.0162747
0.0188553
0.0233213
-0.0179655
-0.0163319
-0.0144058
-0.0120112
-0.00972899
-0.00757197
-0.00557692
-0.00371534
-0.00195394
-0.000258211
0.00140622
0.00307546
0.00478525
0.0065802
0.00850651
0.0106789
0.012824
0.0168475
0.0184323
0.026737
-0.0325971
-0.0184526
-0.016631
-0.0131604
-0.0103929
-0.0080458
-0.0059185
-0.00396155
-0.0021323
-0.000386862
0.00131555
0.00301581
0.0047632
0.00663103
0.00871463
0.0113592
0.0144514
0.020684
0.026361
0.0476252
1.2843e-06
3.64097e-05
0.000119152
0.000244954
0.000410854
0.000612791
0.000845827
0.00110428
0.00138185
0.00167175
0.00196682
0.0022597
0.00254297
0.00280928
0.00305157
0.00326324
0.00343836
0.00357193
0.00366015
0.0036979
-3.30309e-05
2.59778e-06
8.68193e-05
0.000214879
0.000383772
0.000589354
0.000826599
0.00108973
0.00137236
0.00166759
0.00196817
0.00226661
0.00255536
0.00282695
0.00307416
0.00329024
0.00346911
0.00360559
0.00369579
0.00373435
-0.000117376
-8.02749e-05
7.6607e-06
0.000141385
0.000317727
0.000532334
0.000779958
0.00105459
0.00134958
0.00165781
0.00197176
0.00228368
0.00258574
0.00287012
0.00312927
0.00335605
0.00354399
0.00368755
0.00378251
0.00382309
-0.00025086
-0.000211293
-0.000117418
2.53117e-05
0.000213462
0.00044235
0.000706362
0.000999115
0.00131359
0.00164228
0.00197729
0.00231045
0.00263347
0.00293806
0.00321611
0.00345987
0.00366225
0.00381709
0.00391966
0.00396356
-0.000437032
-0.00039396
-0.000291722
-0.00013636
6.83035e-05
0.000317102
0.000603907
0.000921812
0.00126329
0.00162031
0.00198449
0.00234711
0.00269929
0.00303208
0.0033366
0.00360427
0.00382708
0.00399796
0.00411139
0.00416006
-0.000680677
-0.000632946
-0.000519642
-0.000347625
-0.000121272
0.000153578
0.0004701
0.000820702
0.00119721
0.00159097
0.00199298
0.00239388
0.0027841
0.00315383
0.00349323
0.00379261
0.0040427
0.00423516
0.00436328
0.00441847
-0.000988144
-0.000934414
-0.000806931
-0.000613676
-0.000359805
-5.20746e-05
0.00030177
0.000693273
0.00111347
0.00155299
0.00200215
0.0024509
0.00288884
0.00330522
0.00368902
0.00402912
0.0043146
0.0045353
0.00468283
0.00474671
-0.00136761
-0.00130626
-0.0011609
-0.000941033
-0.000652922
-0.000304574
9.50675e-05
0.000536476
0.00100976
0.00150479
0.00201114
0.00251811
0.00301443
0.00348835
0.00392749
0.00431893
0.00464961
0.00490685
0.0050798
0.00515524
-0.00182944
-0.00175843
-0.00159064
-0.00133768
-0.00100739
-0.000609494
-0.000154496
0.000346768
0.000883371
0.00144437
0.00201871
0.0025951
0.00316155
0.00370527
0.00421239
0.00466792
0.00505596
0.00536041
0.00556676
0.00565772
-0.0023868
-0.00230338
-0.00210735
-0.00181322
-0.00143114
-0.000973207
-0.000451949
0.000120208
0.000731205
0.00136935
0.00202313
0.00268092
0.00333027
0.00395754
0.0045474
0.00508247
0.00554332
0.00590911
0.00615982
0.00627213
-0.00305643
-0.00295671
-0.00272478
-0.00237908
-0.00193327
-0.00140273
-0.000802648
-0.000147338
0.000549966
0.001277
0.0020221
0.00277376
0.00351962
0.0042457
0.00493545
0.00556895
0.00612252
0.00656892
0.0068797
0.00702245
-0.00386007
-0.00373817
-0.00345984
-0.00304864
-0.00252387
-0.00190541
-0.00121186
-0.000459782
0.000336442
0.00116434
0.00201264
0.00287071
0.00372709
0.00456837
0.00537764
0.00613273
0.00680501
0.00735911
0.00775318
0.00794141
-0.00482623
-0.00467318
-0.00433349
-0.00383739
-0.00321372
-0.00248823
-0.00168397
-0.00082012
8.80346e-05
0.00102841
0.00199111
0.00296731
0.00394781
0.00492116
0.00587161
0.00677619
0.00760128
0.00830217
0.0088147
0.00907545
-0.00599634
-0.00579581
-0.00537213
-0.00476279
-0.00401344
-0.0031567
-0.00222157
-0.0012297
-0.00019666
0.00086677
0.00195325
0.00305727
0.00417361
0.00529502
0.00640935
0.00749545
0.00851737
0.00942265
0.0101051
0.0104971
-0.00741455
-0.00714432
-0.00660772
-0.00584326
-0.00493173
-0.00391335
-0.00282383
-0.0016867
-0.000516679
0.000678179
0.0018946
0.00313224
0.0043921
0.00567409
0.00697353
0.00827599
0.00954797
0.0107454
0.0116748
0.0123158
-0.00929178
-0.00880185
-0.00809005
-0.00709724
-0.00597376
-0.00475493
-0.00348394
-0.00218407
-0.000867034
0.000463839
0.0018113
0.00318201
0.00458604
0.00603394
0.00753358
0.00908455
0.0106641
0.0122803
0.0135716
0.0147587
-0.0111686
-0.0106803
-0.00980513
-0.0085265
-0.00713188
-0.00566726
-0.00418567
-0.00270703
-0.00123725
0.000228158
0.00170023
0.00319487
0.00473236
0.00633666
0.00803271
0.00983996
0.0117491
0.0139196
0.0155534
0.0178153
-0.0155507
-0.0133214
-0.0120877
-0.0101963
-0.00839611
-0.00661796
-0.00489373
-0.00322605
-0.00160569
-1.57263e-05
0.00156604
0.00316518
0.00481328
0.0065583
0.00846256
0.0106186
0.0130364
0.0162811
0.0188542
0.0234142
-0.0177657
-0.0163688
-0.0144666
-0.0120835
-0.00978713
-0.00761332
-0.00560628
-0.00373664
-0.0019703
-0.000271993
0.00139305
0.00306107
0.0047666
0.00655293
0.00846163
0.0106113
0.0126759
0.0167346
0.0181384
0.0267782
-0.0322921
-0.0182946
-0.0166533
-0.0132177
-0.0104449
-0.00809013
-0.00595243
-0.0039869
-0.00215226
-0.000404095
0.00129867
0.00299666
0.00473803
0.00659605
0.00865758
0.0112914
0.0143178
0.020641
0.0264601
0.0481861
1.64748e-06
3.65934e-05
0.000119241
0.00024499
0.000410863
0.000612789
0.000845825
0.00110429
0.00138187
0.00167178
0.00196688
0.00225979
0.00254308
0.00280941
0.00305172
0.0032634
0.00343853
0.00357209
0.00366029
0.00369797
-3.27015e-05
2.80487e-06
8.69555e-05
0.00021497
0.000383833
0.000589397
0.000826634
0.00108977
0.0013724
0.00166763
0.00196822
0.00226667
0.00255544
0.00282705
0.00307427
0.00329036
0.00346922
0.00360569
0.00369587
0.00373436
-0.000117055
-8.00509e-05
7.82716e-06
0.000141506
0.000317816
0.000532404
0.000780015
0.00105464
0.00134963
0.00165786
0.00197182
0.00228375
0.00258581
0.00287021
0.00312937
0.00335615
0.00354409
0.00368762
0.00378255
0.00382307
-0.000250505
-0.000211032
-0.00011721
2.54728e-05
0.000213589
0.000442452
0.000706447
0.000999188
0.00131366
0.00164234
0.00197735
0.00231051
0.00263354
0.00293814
0.0032162
0.00345996
0.00366233
0.00381715
0.00391969
0.00396351
-0.000436615
-0.000393644
-0.000291462
-0.000136151
6.84728e-05
0.000317241
0.000604023
0.00092191
0.00126337
0.00162039
0.00198457
0.00234719
0.00269938
0.00303217
0.0033367
0.00360436
0.00382717
0.00399803
0.00411142
0.00416001
-0.000680172
-0.000632555
-0.000519313
-0.000347356
-0.000121051
0.000153761
0.000470251
0.000820829
0.00119731
0.00159106
0.00199307
0.00239397
0.00278419
0.00315392
0.00349333
0.00379271
0.0040428
0.00423524
0.00436333
0.00441842
-0.000987517
-0.00093392
-0.000806512
-0.000613329
-0.000359518
-5.18388e-05
0.000301963
0.000693432
0.0011136
0.0015531
0.00200225
0.002451
0.00288894
0.00330532
0.00368914
0.00402925
0.00431473
0.00453541
0.00468291
0.00474668
-0.00136681
-0.00130562
-0.00116035
-0.000940583
-0.000652552
-0.000304273
9.53098e-05
0.00053667
0.00100992
0.00150491
0.00201126
0.00251821
0.00301454
0.00348847
0.00392762
0.00431909
0.00464977
0.004907
0.00507992
0.00515524
-0.00182842
-0.0017576
-0.00158992
-0.00133709
-0.00100691
-0.000609115
-0.000154199
0.000346998
0.000883548
0.0014445
0.00201882
0.00259521
0.00316166
0.00370539
0.00421254
0.0046681
0.00505617
0.00536063
0.00556696
0.00565779
-0.00238544
-0.00230226
-0.0021064
-0.00181245
-0.00143053
-0.000972737
-0.000451594
0.000120468
0.000731392
0.00136949
0.00202323
0.002681
0.00333035
0.00395764
0.00454755
0.00508268
0.00554359
0.00590942
0.00616014
0.00627232
-0.00305459
-0.00295519
-0.00272351
-0.00237807
-0.00193249
-0.00140216
-0.000802244
-0.000147066
0.000550136
0.0012771
0.00202214
0.00277378
0.00351965
0.00424576
0.00493557
0.00556917
0.00612286
0.00656936
0.0068802
0.00702286
-0.00385752
-0.00373606
-0.00345813
-0.00304733
-0.00252291
-0.00190475
-0.00121144
-0.000459539
0.000336549
0.00116434
0.00201259
0.00287062
0.003727
0.00456832
0.00537768
0.00613291
0.0068054
0.00735972
0.00775393
0.00794214
-0.00482262
-0.0046702
-0.00433117
-0.0038357
-0.00321258
-0.00248752
-0.00168359
-0.000819983
8.80008e-05
0.00102825
0.00199088
0.00296704
0.00394751
0.00492091
0.00587146
0.00677622
0.00760165
0.00830298
0.00881585
0.00907675
-0.0059911
-0.00579158
-0.00536902
-0.00476068
-0.00401217
-0.00315605
-0.00222137
-0.0012298
-0.000196952
0.000866346
0.00195273
0.00305668
0.00417298
0.0052944
0.00640882
0.00749517
0.00851758
0.00942366
0.0101068
0.0104995
-0.00740637
-0.00713824
-0.00660362
-0.00584078
-0.00493053
-0.00391301
-0.00282405
-0.00168723
-0.000517415
0.000677308
0.00189362
0.00313114
0.00439089
0.00567281
0.00697228
0.008275
0.00954761
0.0107465
0.011677
0.01232
-0.00928066
-0.00879364
-0.00808508
-0.00709469
-0.00597305
-0.00475535
-0.00348496
-0.00218539
-0.000868518
0.000462239
0.00180958
0.00318007
0.00458385
0.00603147
0.00753094
0.00908205
0.0106624
0.0122813
0.0135743
0.0147664
-0.0111481
-0.0106679
-0.00979872
-0.00852437
-0.00713241
-0.0056692
-0.0041882
-0.00270974
-0.00123998
0.00022541
0.00169737
0.00319164
0.0047286
0.00633219
0.00802744
0.00983413
0.0117429
0.0139176
0.015552
0.0178267
-0.0155237
-0.0133052
-0.0120817
-0.0101959
-0.00839925
-0.00662252
-0.00489861
-0.00323077
-0.00161016
-2.01043e-05
0.00156148
0.00316024
0.00480752
0.00655144
0.00845461
0.0106105
0.0130282
0.0162812
0.0188586
0.023437
-0.0177239
-0.0163556
-0.0144652
-0.0120907
-0.00979693
-0.00762313
-0.00561519
-0.00374447
-0.00197729
-0.000278574
0.00138633
0.00305356
0.00475746
0.00654111
0.0084457
0.0105915
0.0126447
0.0167158
0.018104
0.0267943
-0.0322301
-0.0182619
-0.0166474
-0.0132229
-0.0104545
-0.00810082
-0.00596246
-0.00399581
-0.00216026
-0.000411686
0.00129083
0.00298776
0.00472708
0.00658218
0.00863945
0.0112714
0.0142936
0.0206374
0.0264795
0.0482704
1.89796e-06
3.67374e-05
0.000119314
0.000245016
0.000410865
0.000612782
0.000845819
0.00110429
0.00138189
0.00167182
0.00196694
0.00225987
0.00254319
0.00280955
0.00305188
0.00326357
0.00343871
0.00357225
0.00366042
0.00369804
-3.24106e-05
3.0056e-06
8.70946e-05
0.000215061
0.000383894
0.000589441
0.000826671
0.0010898
0.00137244
0.00166768
0.00196828
0.00226675
0.00255553
0.00282716
0.00307439
0.00329049
0.00346935
0.0036058
0.00369594
0.00373436
-0.000116733
-7.98135e-05
8.00888e-06
0.000141643
0.000317921
0.000532487
0.000780084
0.0010547
0.00134969
0.00165792
0.00197188
0.00228382
0.0025859
0.0028703
0.00312947
0.00335626
0.00354419
0.0036877
0.0037826
0.00382304
-0.000250135
-0.000210748
-0.000116982
2.56548e-05
0.000213735
0.00044257
0.000706545
0.000999272
0.00131373
0.00164241
0.00197742
0.00231059
0.00263363
0.00293823
0.00321629
0.00346006
0.00366242
0.00381722
0.00391972
0.00396346
-0.000436177
-0.000393299
-0.000291177
-0.000135918
6.86646e-05
0.000317399
0.000604154
0.00092202
0.00126347
0.00162048
0.00198465
0.00234727
0.00269946
0.00303226
0.00333679
0.00360446
0.00382726
0.0039981
0.00411145
0.00415995
-0.000679641
-0.000632127
-0.000518954
-0.000347058
-0.000120804
0.000153964
0.000470418
0.000820967
0.00119743
0.00159116
0.00199316
0.00239406
0.00278428
0.00315402
0.00349344
0.00379282
0.00404291
0.00423532
0.00436337
0.00441836
-0.00098686
-0.000933381
-0.000806055
-0.000612948
-0.000359203
-5.15806e-05
0.000302173
0.000693602
0.00111374
0.00155322
0.00200236
0.0024511
0.00288904
0.00330543
0.00368926
0.00402938
0.00431486
0.00453552
0.00468297
0.00474663
-0.00136598
-0.00130493
-0.00115977
-0.000940092
-0.00065215
-0.000303948
9.55692e-05
0.000536875
0.00101008
0.00150505
0.00201137
0.00251832
0.00301465
0.00348859
0.00392776
0.00431924
0.00464993
0.00490715
0.00508003
0.00515523
-0.00182735
-0.0017567
-0.00158916
-0.00133646
-0.0010064
-0.000608709
-0.000153884
0.000347237
0.000883728
0.00144464
0.00201893
0.0025953
0.00316176
0.0037055
0.00421268
0.00466828
0.00505638
0.00536084
0.00556714
0.00565784
-0.00238403
-0.00230107
-0.00210539
-0.00181163
-0.00142988
-0.000972237
-0.000451223
0.000120735
0.000731577
0.00136961
0.00202331
0.00268107
0.00333043
0.00395774
0.00454769
0.00508288
0.00554385
0.00590972
0.00616043
0.00627249
-0.0030527
-0.00295358
-0.00272217
-0.002377
-0.00193168
-0.00140156
-0.000801824
-0.000146791
0.000550302
0.00127719
0.00202218
0.00277379
0.00351965
0.0042458
0.00493568
0.00556938
0.00612318
0.00656978
0.00688066
0.00702323
-0.00385493
-0.00373385
-0.00345633
-0.00304594
-0.0025219
-0.00190405
-0.001211
-0.000459294
0.000336648
0.00116433
0.0020125
0.00287049
0.00372686
0.00456822
0.00537768
0.00613307
0.00680576
0.00736029
0.00775465
0.00794286
-0.00481898
-0.00466712
-0.00432876
-0.00383393
-0.00321137
-0.00248678
-0.0016832
-0.000819848
8.79426e-05
0.00102805
0.00199057
0.00296666
0.00394712
0.00492055
0.00587122
0.00677622
0.007602
0.00830374
0.00881693
0.00907805
-0.00598585
-0.00578725
-0.00536582
-0.00475849
-0.00401083
-0.00315537
-0.00222116
-0.00122991
-0.00019731
0.000865811
0.00195206
0.00305591
0.00417215
0.00529357
0.00640811
0.00749476
0.00851769
0.00942458
0.0101083
0.0105018
-0.00739836
-0.00713212
-0.00659946
-0.00583822
-0.00492926
-0.00391263
-0.00282426
-0.00168784
-0.000518284
0.000676245
0.00189239
0.00312975
0.00438937
0.0056712
0.00697071
0.00827373
0.00954706
0.0107474
0.0116791
0.0123242
-0.00926979
-0.00878538
-0.00808008
-0.00709208
-0.00597231
-0.00475574
-0.00348603
-0.00218684
-0.000870204
0.000460376
0.00180753
0.00317778
0.00458127
0.0060286
0.00752788
0.00907911
0.0106603
0.0122818
0.0135766
0.0147739
-0.0111276
-0.0106552
-0.00979257
-0.00852235
-0.00713316
-0.00567119
-0.00419078
-0.00271254
-0.00124288
0.000222402
0.00169414
0.00318807
0.00472449
0.00632739
0.00802187
0.00982797
0.0117365
0.0139151
0.0155498
0.0178376
-0.0154999
-0.0132904
-0.0120775
-0.0101965
-0.00840288
-0.00662728
-0.00490355
-0.00323554
-0.00161472
-2.4605e-05
0.00155681
0.00315509
0.00480151
0.00654433
0.00844638
0.010602
0.0130196
0.0162812
0.0188622
0.0234613
-0.0176839
-0.0163401
-0.0144635
-0.0120976
-0.00980665
-0.00763285
-0.00562396
-0.00375217
-0.00198419
-0.000285094
0.00137966
0.00304607
0.00474836
0.00652934
0.00842981
0.0105712
0.0126134
0.0166965
0.0180705
0.0268136
-0.0321717
-0.0182253
-0.0166388
-0.0132279
-0.0104645
-0.00811187
-0.00597273
-0.00400483
-0.0021683
-0.000419243
0.0012831
0.0029791
0.00471657
0.00656895
0.00862233
0.0112523
0.0142697
0.0206333
0.0264913
0.0483497
2.10201e-06
3.69052e-05
0.000119447
0.000245118
0.000410944
0.000612844
0.000845872
0.00110434
0.00138194
0.00167187
0.001967
0.00225994
0.00254327
0.00280964
0.00305198
0.00326368
0.00343881
0.00357235
0.00366051
0.0036981
-3.21866e-05
3.19399e-06
8.72481e-05
0.000215183
0.000383991
0.000589519
0.000826736
0.00108986
0.00137249
0.00166774
0.00196834
0.00226682
0.00255561
0.00282724
0.00307448
0.00329058
0.00346944
0.00360588
0.00369601
0.00373441
-0.000116482
-7.95971e-05
8.19086e-06
0.000141792
0.000318043
0.000532586
0.000780167
0.00105477
0.00134976
0.00165798
0.00197195
0.00228389
0.00258597
0.00287038
0.00312955
0.00335634
0.00354427
0.00368777
0.00378265
0.00382307
-0.000249842
-0.00021049
-0.00011676
2.58406e-05
0.000213889
0.000442698
0.000706652
0.000999362
0.00131381
0.00164249
0.00197749
0.00231066
0.0026337
0.00293831
0.00321637
0.00346014
0.0036625
0.00381729
0.00391977
0.00396349
-0.000435824
-0.000392985
-0.000290903
-0.000135685
6.88595e-05
0.000317561
0.000604287
0.000922131
0.00126356
0.00162056
0.00198472
0.00234734
0.00269953
0.00303234
0.00333687
0.00360454
0.00382733
0.00399816
0.0041115
0.00415997
-0.000679205
-0.000631736
-0.000518611
-0.000346765
-0.000120558
0.000154167
0.000470584
0.000821101
0.00119754
0.00159126
0.00199324
0.00239414
0.00278435
0.0031541
0.00349352
0.00379291
0.00404299
0.0042354
0.00436343
0.00441839
-0.00098631
-0.000932886
-0.00080562
-0.000612577
-0.000358894
-5.13285e-05
0.000302375
0.000693761
0.00111386
0.00155332
0.00200244
0.00245117
0.00288911
0.00330551
0.00368934
0.00402947
0.00431495
0.00453561
0.00468305
0.00474669
-0.00136528
-0.0013043
-0.00115921
-0.00093962
-0.000651761
-0.000303637
9.58113e-05
0.000537059
0.00101022
0.00150515
0.00201144
0.00251838
0.00301471
0.00348866
0.00392784
0.00431934
0.00465004
0.00490727
0.00508015
0.00515532
-0.00182643
-0.00175587
-0.00158844
-0.00133585
-0.00100591
-0.00060833
-0.0001536
0.000347441
0.000883867
0.00144473
0.00201899
0.00259534
0.00316179
0.00370555
0.00421275
0.00466838
0.00505651
0.005361
0.0055673
0.00565798
-0.00238283
-0.00229998
-0.00210446
-0.00181086
-0.00142927
-0.000971782
-0.000450901
0.000120946
0.0007317
0.00136967
0.00202332
0.00268105
0.0033304
0.00395774
0.00454773
0.00508297
0.005544
0.00590992
0.00616067
0.00627272
-0.0030511
-0.00295214
-0.00272094
-0.00237601
-0.00193093
-0.00140103
-0.000801478
-0.000146596
0.000550376
0.00127717
0.0020221
0.00277368
0.00351954
0.00424571
0.00493564
0.00556942
0.00612333
0.00657005
0.00688101
0.00702359
-0.00385277
-0.00373191
-0.00345472
-0.0030447
-0.002521
-0.00190346
-0.00121066
-0.000459163
0.00033662
0.00116419
0.00201228
0.00287023
0.00372659
0.00456798
0.00537751
0.00613302
0.00680589
0.00736063
0.00775515
0.00794344
-0.00481602
-0.00466451
-0.00432666
-0.00383238
-0.00321033
-0.00248617
-0.00168294
-0.000819854
8.77402e-05
0.00102771
0.00199012
0.00296615
0.00394658
0.00492004
0.0058708
0.00677598
0.00760202
0.00830412
0.00881763
0.00907897
-0.00598176
-0.00578373
-0.00536311
-0.0047566
-0.00400969
-0.00315483
-0.00222108
-0.00123017
-0.000197801
0.000865146
0.00195127
0.00305502
0.00417119
0.00529262
0.00640726
0.00749415
0.00851748
0.00942496
0.0101093
0.0105032
-0.00739261
-0.00712738
-0.00659603
-0.00583604
-0.00492814
-0.00391232
-0.00282454
-0.00168851
-0.000519224
0.000675103
0.00189108
0.0031283
0.0043878
0.00566957
0.00696914
0.00827243
0.00954632
0.0107477
0.0116802
0.0123265
-0.00926216
-0.0087792
-0.00807592
-0.00708973
-0.00597143
-0.00475592
-0.0034869
-0.00218815
-0.000871798
0.000458568
0.00180552
0.00317556
0.00457883
0.00602598
0.00752521
0.00907666
0.0106585
0.0122817
0.0135779
0.0147775
-0.0111162
-0.0106468
-0.00978747
-0.00851998
-0.00713278
-0.00567219
-0.00419258
-0.00271477
-0.00124536
0.000219723
0.00169124
0.00318486
0.0047209
0.00632339
0.00801755
0.00982365
0.0117327
0.0139136
0.0155497
0.0178424
-0.0154857
-0.0132801
-0.0120722
-0.0101945
-0.00840347
-0.00662947
-0.00490658
-0.00323892
-0.00161827
-2.83069e-05
0.00155284
0.00315076
0.00479662
0.00653881
0.00844044
0.0105963
0.0130148
0.0162806
0.0188647
0.023471
-0.0176649
-0.0163279
-0.0144576
-0.0120964
-0.00980872
-0.00763665
-0.00562847
-0.00375688
-0.00198892
-0.000289901
0.00137458
0.0030404
0.00474176
0.00652148
0.00842046
0.0105609
0.012601
0.01669
0.0180635
0.0268219
-0.0321464
-0.0182078
-0.0166309
-0.0132262
-0.0104667
-0.00811619
-0.00597787
-0.00401016
-0.00217361
-0.000424619
0.00127742
0.00297275
0.0047092
0.00656031
0.0086124
0.0112422
0.01426
0.0206314
0.0264949
0.0483721
2.27201e-06
3.70547e-05
0.000119572
0.000245221
0.000411027
0.000612913
0.00084593
0.00110439
0.00138199
0.00167193
0.00196706
0.00226001
0.00254334
0.00280972
0.00305206
0.00326376
0.00343889
0.00357242
0.00366057
0.00369815
-3.20009e-05
3.36033e-06
8.73907e-05
0.000215302
0.000384089
0.000589601
0.000826806
0.00108992
0.00137255
0.00166779
0.0019684
0.00226688
0.00255567
0.00282731
0.00307456
0.00329065
0.00346951
0.00360594
0.00369606
0.00373445
-0.000116271
-7.94057e-05
8.35834e-06
0.000141934
0.000318162
0.000532686
0.000780251
0.00105484
0.00134982
0.00165804
0.00197201
0.00228395
0.00258603
0.00287045
0.00312962
0.00335641
0.00354433
0.00368783
0.0037827
0.0038231
-0.000249593
-0.000210262
-0.000116558
2.60147e-05
0.000214036
0.000442822
0.000706755
0.00099945
0.00131389
0.00164255
0.00197755
0.00231072
0.00263376
0.00293837
0.00321643
0.0034602
0.00366256
0.00381734
0.00391981
0.00396352
-0.000435522
-0.000392707
-0.000290654
-0.000135469
6.90424e-05
0.000317713
0.000604413
0.000922235
0.00126365
0.00162063
0.00198479
0.0023474
0.00269959
0.0030324
0.00333693
0.00360461
0.00382739
0.00399822
0.00411154
0.00416
-0.000678831
-0.00063139
-0.000518301
-0.000346495
-0.000120331
0.000154355
0.000470736
0.000821224
0.00119764
0.00159134
0.00199331
0.0023942
0.00278441
0.00315416
0.00349358
0.00379297
0.00404306
0.00423546
0.00436348
0.00441843
-0.00098584
-0.000932448
-0.000805228
-0.000612238
-0.000358611
-5.1098e-05
0.000302557
0.000693903
0.00111397
0.0015534
0.00200251
0.00245123
0.00288916
0.00330556
0.00368941
0.00402954
0.00431503
0.00453568
0.00468312
0.00474674
-0.00136468
-0.00130374
-0.00115871
-0.000939193
-0.000651409
-0.000303357
9.60267e-05
0.000537218
0.00101033
0.00150523
0.0020115
0.00251842
0.00301475
0.0034887
0.00392789
0.00431941
0.00465013
0.00490736
0.00508024
0.0051554
-0.00182565
-0.00175515
-0.0015878
-0.00133531
-0.00100548
-0.000607993
-0.000153352
0.000347612
0.000883976
0.00144479
0.00201902
0.00259535
0.0031618
0.00370557
0.00421279
0.00466844
0.00505661
0.00536112
0.00556743
0.00565811
-0.00238181
-0.00229904
-0.00210363
-0.00181017
-0.00142874
-0.000971384
-0.000450626
0.000121117
0.000731788
0.00136969
0.0020233
0.00268101
0.00333035
0.0039577
0.00454772
0.00508301
0.0055441
0.00591007
0.00616085
0.00627291
-0.00304976
-0.0029509
-0.00271988
-0.00237516
-0.00193028
-0.00140057
-0.00080119
-0.000146448
0.000550414
0.00127712
0.00202199
0.00277354
0.00351939
0.00424558
0.00493556
0.00556942
0.00612341
0.00657022
0.00688125
0.00702387
-0.00385098
-0.00373029
-0.00345335
-0.00304363
-0.00252023
-0.00190296
-0.00121039
-0.000459076
0.000336563
0.00116403
0.00201204
0.00286993
0.00372628
0.00456769
0.00537729
0.00613292
0.00680592
0.00736082
0.00775549
0.00794386
-0.00481364
-0.00466237
-0.00432491
-0.00383107
-0.00320944
-0.00248565
-0.00168273
-0.000819888
8.75207e-05
0.00102735
0.00198966
0.00296563
0.00394603
0.00491951
0.00587036
0.00677569
0.00760196
0.00830432
0.00881808
0.00907959
-0.00597856
-0.0057809
-0.00536088
-0.00475503
-0.00400872
-0.00315437
-0.00222102
-0.00123041
-0.000198275
0.000864501
0.00195049
0.00305415
0.00417028
0.00529171
0.00640644
0.00749353
0.00851719
0.00942513
0.0101098
0.0105042
-0.00738827
-0.00712369
-0.00659326
-0.00583421
-0.00492716
-0.00391202
-0.00282474
-0.00168909
-0.00052007
0.000674056
0.00188987
0.00312697
0.00438637
0.00566811
0.00696775
0.00827128
0.00954563
0.0107477
0.0116809
0.0123279
-0.00925652
-0.00877447
-0.00807257
-0.00708772
-0.00597058
-0.00475595
-0.00348754
-0.00218921
-0.000873153
0.000456989
0.00180375
0.00317361
0.00457672
0.00602376
0.007523
0.00907468
0.0106571
0.0122815
0.0135786
0.0147797
-0.0111081
-0.0106405
-0.00978342
-0.0085179
-0.00713226
-0.00567275
-0.00419384
-0.00271648
-0.00124736
0.000217488
0.00168876
0.00318216
0.00471794
0.00632018
0.00801422
0.00982045
0.01173
0.0139125
0.0155496
0.0178453
-0.0154762
-0.0132727
-0.0120678
-0.0101926
-0.00840355
-0.00663079
-0.00490862
-0.00324138
-0.001621
-3.12482e-05
0.00154966
0.00314727
0.00479274
0.00653457
0.00843601
0.0105921
0.0130114
0.0162799
0.018866
0.0234768
-0.0176522
-0.0163188
-0.0144527
-0.012095
-0.00980963
-0.00763891
-0.00563142
-0.00376016
-0.00199238
-0.000293546
0.00137067
0.00303604
0.00473681
0.00651579
0.00841397
0.0105539
0.0125932
0.0166858
0.0180595
0.026827
-0.0321303
-0.0181956
-0.0166247
-0.0132243
-0.0104678
-0.0081188
-0.00598125
-0.00401386
-0.00217747
-0.000428649
0.0012731
0.00296797
0.00470378
0.00655417
0.00860561
0.0112355
0.0142537
0.0206299
0.0264964
0.0483847
2.41336e-06
3.71856e-05
0.000119689
0.000245321
0.000411112
0.000612985
0.000845993
0.00110445
0.00138204
0.00167197
0.0019671
0.00226006
0.00254339
0.00280977
0.00305212
0.00326382
0.00343895
0.00357248
0.00366062
0.0036982
-3.18485e-05
3.50219e-06
8.75174e-05
0.000215412
0.000384183
0.00058968
0.000826874
0.00108998
0.0013726
0.00166784
0.00196845
0.00226693
0.00255573
0.00282736
0.00307461
0.00329071
0.00346956
0.00360599
0.00369611
0.00373449
-0.000116098
-7.92439e-05
8.50398e-06
0.000142062
0.000318271
0.000532778
0.00078033
0.00105491
0.00134988
0.0016581
0.00197206
0.002284
0.00258608
0.0028705
0.00312967
0.00335646
0.00354438
0.00368788
0.00378274
0.00382314
-0.000249389
-0.000210071
-0.000116384
2.61673e-05
0.000214167
0.000442932
0.000706848
0.000999527
0.00131395
0.00164261
0.00197761
0.00231077
0.00263381
0.00293842
0.00321649
0.00346025
0.00366261
0.00381739
0.00391985
0.00396355
-0.000435275
-0.000392473
-0.000290442
-0.000135283
6.92022e-05
0.000317847
0.000604524
0.000922325
0.00126372
0.0016207
0.00198484
0.00234745
0.00269964
0.00303245
0.00333698
0.00360466
0.00382744
0.00399826
0.00411158
0.00416004
-0.000678524
-0.000631099
-0.000518037
-0.000346264
-0.000120134
0.000154518
0.000470868
0.000821329
0.00119772
0.0015914
0.00199336
0.00239424
0.00278446
0.0031542
0.00349363
0.00379302
0.00404311
0.00423551
0.00436353
0.00441847
-0.000985453
-0.000932083
-0.000804896
-0.00061195
-0.000358368
-5.09009e-05
0.000302713
0.000694022
0.00111406
0.00155347
0.00200256
0.00245127
0.0028892
0.0033056
0.00368945
0.00402958
0.00431508
0.00453574
0.00468318
0.00474679
-0.00136418
-0.00130327
-0.00115829
-0.000938832
-0.00065111
-0.00030312
9.62072e-05
0.000537349
0.00101042
0.00150528
0.00201154
0.00251844
0.00301476
0.00348872
0.00392792
0.00431945
0.00465018
0.00490743
0.00508031
0.00515547
-0.00182502
-0.00175455
-0.00158726
-0.00133486
-0.00100511
-0.000607711
-0.000153148
0.000347749
0.000884058
0.00144483
0.00201903
0.00259534
0.00316178
0.00370556
0.00421279
0.00466847
0.00505666
0.0053612
0.00556753
0.00565821
-0.00238099
-0.00229827
-0.00210295
-0.00180961
-0.00142829
-0.000971055
-0.000450403
0.00012125