/*--------------------------------*- C++ -*----------------------------------*\
  =========                 |
  \\      /  F ield         | OpenFOAM: The Open Source CFD Toolbox
   \\    /   O peration     | Website:  https://openfoam.org
    \\  /    A nd           | Version:  9
     \\/     M anipulation  |
\*---------------------------------------------------------------------------*/
FoamFile
{
    format      ascii;
    class       surfaceScalarField;
    location    "1";
    object      phi;
}
// * * * * * * * * * * * * * * * * * * * * * * * * * * * * * * * * * * * * * //

dimensions      [0 3 -1 0 0 0 0];

internalField   nonuniform List<scalar> 
22800
(
-3.77129e-06
3.77223e-06
-1.82575e-09
-7.83419e-06
4.05606e-06
6.82995e-09
-1.17088e-05
3.86604e-06
8.58989e-09
-1.52847e-05
3.56688e-06
8.96237e-09
-1.8473e-05
3.17993e-06
8.44942e-09
-2.11976e-05
2.71715e-06
7.39762e-09
-2.33949e-05
2.19131e-06
5.98159e-09
-2.50148e-05
1.61559e-06
4.29839e-09
-2.60204e-05
1.00318e-06
2.41251e-09
-2.63879e-05
3.67135e-07
3.70721e-10
-2.61065e-05
-2.79578e-07
-1.76353e-09
-2.51789e-05
-9.23645e-07
-3.95966e-09
-2.36213e-05
-1.55145e-06
-6.14624e-09
-2.14645e-05
-2.14863e-06
-8.24696e-09
-1.87542e-05
-2.70012e-06
-1.01591e-08
-1.55521e-05
-3.19036e-06
-1.17365e-08
-1.19355e-05
-3.60387e-06
-1.27482e-08
-7.99681e-06
-3.92586e-06
-1.27933e-08
-3.8536e-06
-4.13191e-06
-1.12941e-08
-3.85095e-06
-2.64696e-09
-4.24464e-06
8.02757e-06
-1.06996e-08
-8.7995e-06
8.61269e-06
-1.76663e-09
-1.31415e-05
8.20752e-06
5.01355e-10
-1.71462e-05
7.57e-06
1.57089e-09
-2.07143e-05
6.74615e-06
1.89746e-09
-2.3761e-05
5.76204e-06
1.82247e-09
-2.62164e-05
4.64519e-06
1.50009e-09
-2.80255e-05
3.4237e-06
1.0012e-09
-2.91481e-05
2.12545e-06
3.59385e-10
-2.95585e-05
7.77858e-07
-3.75169e-10
-2.92447e-05
-5.92153e-07
-1.24135e-09
-2.82095e-05
-1.95664e-06
-2.16834e-09
-2.64704e-05
-3.28738e-06
-3.1341e-09
-2.40607e-05
-4.55426e-06
-4.08804e-09
-2.10304e-05
-5.72549e-06
-4.95157e-09
-1.74472e-05
-6.76793e-06
-5.59902e-09
-1.3397e-05
-7.64832e-06
-5.81171e-09
-8.98307e-06
-8.33456e-06
-5.18681e-09
-4.33785e-06
-8.77397e-06
-3.16353e-09
-8.19473e-06
5.92966e-09
-4.46373e-06
1.25051e-05
-1.38313e-08
-9.25263e-06
1.34061e-05
-4.50037e-09
-1.3813e-05
1.27699e-05
-2.00786e-09
-1.8014e-05
1.17717e-05
-7.06757e-10
-2.17522e-05
1.04844e-05
-1.41118e-10
-2.49401e-05
8.94996e-06
6.02328e-11
-2.75071e-05
7.21209e-06
5.06776e-11
-2.9398e-05
5.31475e-06
-1.01772e-10
-3.0573e-05
3.30083e-06
-3.68917e-10
-3.10064e-05
1.21198e-06
-7.6648e-10
-3.06859e-05
-9.11431e-07
-1.25131e-09
-2.96133e-05
-3.02734e-06
-1.82231e-09
-2.78049e-05
-5.09341e-06
-2.45691e-09
-2.52922e-05
-7.06384e-06
-3.11185e-09
-2.21244e-05
-8.88957e-06
-3.71397e-09
-1.83694e-05
-1.05187e-05
-4.13803e-09
-1.41153e-05
-1.18983e-05
-4.15748e-09
-9.47027e-06
-1.29763e-05
-3.34685e-09
-4.57438e-06
-1.36687e-05
-1.1205e-09
-1.27776e-05
8.44675e-09
-4.7886e-06
1.73102e-05
-1.64548e-08
-9.92278e-06
1.85468e-05
-6.49656e-09
-1.48046e-05
1.76555e-05
-3.7751e-09
-1.92928e-05
1.62622e-05
-2.2987e-09
-2.32779e-05
1.4471e-05
-1.5559e-09
-2.66697e-05
1.2343e-05
-1.17673e-09
-2.93969e-05
9.94023e-06
-9.98998e-10
-3.14051e-05
7.32391e-06
-9.56577e-10
-3.26555e-05
4.5523e-06
-1.02486e-09
-3.31231e-05
1.68076e-06
-1.19687e-09
-3.27951e-05
-1.23795e-06
-1.47233e-09
-3.16718e-05
-4.14876e-06
-1.84913e-09
-2.97667e-05
-6.99629e-06
-2.30979e-09
-2.71082e-05
-9.71944e-06
-2.81728e-09
-2.37431e-05
-1.22514e-05
-3.30018e-09
-1.97386e-05
-1.45196e-05
-3.62792e-09
-1.51851e-05
-1.64482e-05
-3.55649e-09
-1.01975e-05
-1.79613e-05
-2.62151e-09
-4.92853e-06
-1.89375e-05
-1.91242e-10
-1.77162e-05
1.0088e-08
-5.24335e-06
2.25727e-05
-1.91736e-08
-1.0859e-05
2.41707e-05
-8.31355e-09
-1.61863e-05
2.29882e-05
-5.32296e-09
-2.10696e-05
2.11491e-05
-3.6642e-09
-2.53913e-05
1.87956e-05
-2.78624e-09
-2.90586e-05
1.60125e-05
-2.2798e-09
-3.20004e-05
1.2884e-05
-1.96805e-09
-3.4165e-05
9.49029e-06
-1.78222e-09
-3.55162e-05
5.90518e-06
-1.70178e-09
-3.60305e-05
2.19675e-06
-1.727e-09
-3.56947e-05
-1.57184e-06
-1.86505e-09
-3.45068e-05
-5.33453e-06
-2.12323e-09
-3.24756e-05
-9.02496e-06
-2.49257e-09
-2.96244e-05
-1.25678e-05
-2.94172e-09
-2.59944e-05
-1.58779e-05
-3.39919e-09
-2.16503e-05
-1.886e-05
-3.72375e-09
-1.66843e-05
-2.14106e-05
-3.64266e-09
-1.12199e-05
-2.34231e-05
-2.63057e-09
-5.42761e-06
-2.47298e-05
2.04112e-11
-2.31551e-05
1.1302e-08
-5.84666e-06
2.84418e-05
-2.24405e-08
-1.20979e-05
3.04323e-05
-1.03833e-08
-1.80084e-05
2.89058e-05
-7.05789e-09
-2.34028e-05
2.65487e-05
-5.18183e-09
-2.81545e-05
2.35515e-05
-4.15434e-09
-3.21688e-05
2.00303e-05
-3.51428e-09
-3.5378e-05
1.60963e-05
-3.06621e-09
-3.77359e-05
1.1851e-05
-2.73732e-09
-3.92118e-05
7.38356e-06
-2.51075e-09
-3.97856e-05
2.77293e-06
-2.39515e-09
-3.94442e-05
-1.91082e-06
-2.40852e-09
-3.8182e-05
-6.59423e-06
-2.5688e-09
-3.60005e-05
-1.12035e-05
-2.88017e-09
-3.29137e-05
-1.56513e-05
-3.31878e-09
-2.89532e-05
-1.98346e-05
-3.81338e-09
-2.41768e-05
-2.36322e-05
-4.20823e-09
-1.86762e-05
-2.6907e-05
-4.18991e-09
-1.25843e-05
-2.95117e-05
-3.14468e-09
-6.09587e-06
-3.1218e-05
-2.55831e-10
-2.92633e-05
1.23477e-08
-6.62548e-06
3.50939e-05
-2.66286e-08
-1.36917e-05
3.75116e-05
-1.30377e-08
-2.03407e-05
3.5564e-05
-9.28582e-09
-2.63718e-05
3.25869e-05
-7.12375e-09
-3.16491e-05
2.88347e-05
-5.89568e-09
-3.60796e-05
2.44659e-05
-5.07512e-09
-3.9604e-05
1.96252e-05
-4.44464e-09
-4.21872e-05
1.44381e-05
-3.92786e-09
-4.38087e-05
9.00848e-06
-3.51399e-09
-4.44547e-05
3.42225e-06
-3.22285e-09
-4.41135e-05
-2.249e-06
-3.0869e-09
-4.27739e-05
-7.93068e-06
-3.13672e-09
-4.04268e-05
-1.35472e-05
-3.39735e-09
-3.70706e-05
-1.90037e-05
-3.85691e-09
-3.27198e-05
-2.41809e-05
-4.44748e-09
-2.74179e-05
-2.89291e-05
-4.9968e-09
-2.12505e-05
-3.30693e-05
-5.13764e-09
-1.43592e-05
-3.63989e-05
-4.13166e-09
-6.96904e-06
-3.86071e-05
-1.01775e-09
-3.62456e-05
1.3269e-08
-7.6194e-06
4.27455e-05
-3.21622e-08
-1.57155e-05
4.56244e-05
-1.66428e-08
-2.32813e-05
4.31421e-05
-1.23327e-08
-3.00848e-05
3.94002e-05
-9.76635e-09
-3.5983e-05
3.47412e-05
-8.23677e-09
-4.08916e-05
2.93816e-05
-7.13764e-09
-4.47689e-05
2.35088e-05
-6.229e-09
-4.75999e-05
1.72746e-05
-5.43359e-09
-4.93816e-05
1.07949e-05
-4.74991e-09
-5.01117e-05
4.15665e-06
-4.21228e-09
-4.97815e-05
-2.57541e-06
-3.8714e-09
-4.83722e-05
-9.33613e-06
-3.77196e-09
-4.58588e-05
-1.60566e-05
-3.97123e-09
-4.22151e-05
-2.26429e-05
-4.47784e-09
-3.74272e-05
-2.89636e-05
-5.23521e-09
-3.15109e-05
-3.48393e-05
-6.05683e-09
-2.45349e-05
-4.00388e-05
-6.50881e-09
-1.6644e-05
-4.42841e-05
-5.67997e-09
-8.10066e-06
-4.71481e-05
-2.40092e-09
-4.43602e-05
1.3948e-08
-8.88767e-06
5.16728e-05
-3.96452e-08
-1.82786e-05
5.5037e-05
-2.17246e-08
-2.69687e-05
5.18488e-05
-1.66441e-08
-3.46892e-05
4.71342e-05
-1.34647e-08
-4.1297e-05
4.13604e-05
-1.14465e-08
-4.67298e-05
3.48242e-05
-9.89015e-09
-5.09789e-05
2.77664e-05
-8.53673e-09
-5.40634e-05
2.03664e-05
-7.31186e-09
-5.6009e-05
1.27467e-05
-6.22643e-09
-5.68323e-05
4.98527e-06
-5.33192e-09
-5.65308e-05
-2.87221e-06
-4.6988e-09
-5.50757e-05
-1.07868e-05
-4.38614e-09
-5.24187e-05
-1.8709e-05
-4.4938e-09
-4.84969e-05
-2.65598e-05
-5.06964e-09
-4.32496e-05
-3.42048e-05
-6.08611e-09
-3.66446e-05
-4.14369e-05
-7.35465e-09
-2.87122e-05
-4.79629e-05
-8.36692e-09
-1.95868e-05
-5.34015e-05
-7.97587e-09
-9.57285e-06
-5.71574e-05
-4.7004e-09
-5.39471e-05
1.40639e-08
-1.05217e-05
6.22446e-05
-5.00378e-08
-2.1543e-05
6.60874e-05
-2.91425e-08
-3.1601e-05
6.19297e-05
-2.28941e-08
-4.03869e-05
5.59389e-05
-1.87167e-08
-4.77744e-05
4.87636e-05
-1.58641e-08
-5.37473e-05
4.08107e-05
-1.35361e-08
-5.83544e-05
3.2385e-05
-1.14607e-08
-6.16702e-05
2.36917e-05
-9.56982e-09
-6.3765e-05
1.48494e-05
-7.88884e-09
-6.46846e-05
5.91136e-06
-6.48506e-09
-6.44384e-05
-3.11302e-06
-5.44317e-09
-6.29852e-05
-1.22352e-05
-4.83461e-09
-6.02437e-05
-2.14457e-05
-4.79392e-09
-5.60974e-05
-3.07007e-05
-5.44394e-09
-5.04137e-05
-3.98817e-05
-6.83139e-09
-4.30785e-05
-4.87634e-05
-8.80136e-09
-3.40468e-05
-5.69837e-05
-1.07807e-08
-2.34116e-05
-6.40254e-05
-1.1316e-08
-1.15165e-05
-6.90441e-05
-8.40045e-09
-6.54765e-05
1.29365e-08
-1.26693e-05
7.49789e-05
-6.49847e-08
-2.57553e-05
7.92137e-05
-4.03904e-08
-3.74661e-05
7.36727e-05
-3.21302e-08
-4.74562e-05
6.59552e-05
-2.62269e-08
-5.5653e-05
5.69824e-05
-2.18981e-08
-6.21283e-05
4.73043e-05
-1.82492e-08
-6.70261e-05
3.72978e-05
-1.4994e-08
-7.05064e-05
2.71841e-05
-1.20804e-08
-7.27065e-05
1.70591e-05
-9.5461e-09
-7.37152e-05
6.92753e-06
-7.45091e-09
-7.35606e-05
-3.26175e-06
-5.8682e-09
-7.219e-05
-1.36009e-05
-4.87137e-09
-6.94784e-05
-2.41528e-05
-4.61486e-09
-6.52317e-05
-3.4942e-05
-5.30851e-09
-5.92114e-05
-4.58948e-05
-7.15821e-09
-5.11714e-05
-5.67932e-05
-1.01631e-08
-4.09283e-05
-6.7213e-05
-1.37582e-08
-2.84666e-05
-7.6471e-05
-1.6144e-08
-1.4152e-05
-8.33445e-05
-1.42523e-08
-7.96377e-05
9.18328e-09
-1.55838e-05
9.06502e-05
-8.75074e-08
-3.13013e-05
9.49894e-05
-5.81176e-08
-4.499e-05
8.74073e-05
-4.59388e-08
-5.6284e-05
7.72862e-05
-3.69387e-08
-6.52417e-05
6.597e-05
-2.99403e-08
-7.20914e-05
5.4178e-05
-2.40097e-08
-7.71271e-05
4.23522e-05
-1.88554e-08
-8.0636e-05
3.07075e-05
-1.44424e-08
-8.28533e-05
1.92871e-05
-1.07668e-08
-8.39279e-05
8.00996e-06
-7.80195e-09
-8.39128e-05
-3.2713e-06
-5.54256e-09
-8.27468e-05
-1.47628e-05
-4.02985e-09
-8.02546e-05
-2.66416e-05
-3.446e-09
-7.61427e-05
-3.90497e-05
-4.1137e-09
-7.0014e-05
-5.20171e-05
-6.47517e-09
-6.142e-05
-6.53762e-05
-1.08958e-08
-4.99384e-05
-7.86776e-05
-1.70727e-08
-3.53096e-05
-9.10766e-05
-2.31296e-08
-1.7885e-05
-0.000100746
-2.3506e-08
-9.75226e-05
-1.44696e-10
-1.97314e-05
0.000110506
-1.2396e-07
-3.88021e-05
0.000114147
-8.69398e-08
-5.48122e-05
0.000103484
-6.65054e-08
-6.74102e-05
8.9936e-05
-5.1914e-08
-7.6938e-05
7.55379e-05
-4.001e-08
-8.38818e-05
6.11519e-05
-3.02227e-08
-8.87701e-05
4.72628e-05
-2.22002e-08
-9.20776e-05
3.40308e-05
-1.57878e-08
-9.41639e-05
2.13842e-05
-1.07304e-08
-9.5256e-05
9.10884e-06
-6.76331e-09
-9.54396e-05
-3.08411e-06
-3.65943e-09
-9.46512e-05
-1.55498e-05
-1.38025e-09
-9.26641e-05
-2.86287e-05
-8.96839e-11
-8.90715e-05
-4.26418e-05
-5.32598e-10
-8.32755e-05
-5.78096e-05
-3.48378e-09
-7.45076e-05
-7.41344e-05
-9.73466e-09
-6.1953e-05
-9.12124e-05
-1.97666e-08
-4.4851e-05
-0.000108145
-3.32297e-08
-2.34645e-05
-0.000122093
-3.86154e-08
-0.000120968
-1.91083e-08
-2.5993e-05
0.000136683
-1.84847e-07
-4.92844e-05
0.000137572
-1.33484e-07
-6.79014e-05
0.000122197
-9.5964e-08
-8.15855e-05
0.000103692
-7.16216e-08
-9.12272e-05
8.52304e-05
-5.0791e-08
-9.77433e-05
6.7703e-05
-3.49964e-08
-0.000102023
5.15653e-05
-2.31681e-08
-0.000104773
3.67957e-05
-1.44505e-08
-0.000106502
2.31211e-05
-7.96426e-09
-0.000107525
1.01349e-05
-2.89476e-09
-0.000107973
-2.63746e-06
1.04001e-09
-0.000107791
-1.57358e-05
3.69254e-09
-0.000106713
-2.97123e-05
5.53997e-09
-0.000104222
-4.51387e-05
5.92656e-09
-9.94931e-05
-6.25418e-05
3.71066e-09
-9.13482e-05
-8.2276e-05
-3.31549e-09
-7.82967e-05
-0.000104245
-1.8686e-08
-5.85979e-05
-0.000127797
-4.68423e-08
-3.22693e-05
-0.000148363
-5.89501e-08
-0.000153175
-6.25856e-08
-3.57593e-05
0.000172762
-3.1982e-07
-6.43522e-05
0.000166383
-2.18315e-07
-8.57009e-05
0.000143682
-1.36268e-07
-9.98108e-05
0.000117895
-9.38417e-08
-0.000108657
9.41338e-05
-5.75114e-08
-0.000113889
7.29687e-05
-3.36948e-08
-0.000116857
5.45511e-05
-1.77698e-08
-0.000118537
3.84831e-05
-7.13537e-09
-0.000119587
2.41707e-05
4.49433e-10
-0.000120407
1.09494e-05
5.21762e-09
-0.000121178
-1.87554e-06
9.56171e-09
-0.000121876
-1.50511e-05
1.35178e-08
-0.000122236
-2.93703e-05
1.72478e-08
-0.000121672
-4.57221e-05
1.99932e-08
-0.000119157
-6.50768e-05
1.97301e-08
-0.000113052
-8.83941e-05
1.29558e-08
-0.000100973
-0.000116319
-4.74646e-09
-7.91026e-05
-0.000149604
-6.39983e-08
-4.70607e-05
-0.000180324
-8.11568e-08
-0.000200075
-1.60171e-07
-5.39903e-05
0.000227163
-4.09805e-07
-8.72906e-05
0.000200001
-3.17297e-07
-0.000110546
0.000167099
-1.61541e-07
-0.000123346
0.000130799
-1.03574e-07
-0.000129791
0.000100625
-4.61635e-08
-0.000132401
7.5594e-05
-1.52074e-08
-0.000133058
5.52061e-05
2.37453e-09
-0.000132988
3.84011e-05
1.14532e-08
-0.000132953
2.41186e-05
1.72022e-08
-0.000133389
1.13636e-05
2.18188e-08
-0.000134516
-7.75414e-07
2.72225e-08
-0.000136369
-1.32313e-05
3.29775e-08
-0.000138773
-2.70067e-05
4.08232e-08
-0.000141206
-4.33402e-05
5.01695e-08
-0.000142554
-6.37864e-05
5.83987e-08
-0.000140785
-9.02226e-05
5.93437e-08
-0.000132704
-0.000124444
4.38753e-08
-0.000110397
-0.00017184
-7.11811e-08
-7.45161e-05
-0.000216129
-7.5697e-08
-0.000274199
-3.91876e-07
-7.55722e-05
0.000304126
-1.39107e-06
-0.000117646
0.000242754
-6.80092e-07
-0.000143749
0.000193432
-2.30605e-07
-0.00015332
0.000140453
-8.27041e-08
-0.000154896
0.000102189
1.21251e-08
-0.000152981
7.36349e-05
4.45937e-08
-0.000150054
5.22237e-05
5.46744e-08
-0.000147456
3.57486e-05
5.55311e-08
-0.000145884
2.24914e-05
5.43388e-08
-0.000145701
1.11265e-05
5.48369e-08
-0.00014717
6.31951e-07
6.13432e-08
-0.000150369
-1.01013e-05
6.8873e-08
-0.000155353
-2.21084e-05
8.54297e-08
-0.000161882
-3.69222e-05
1.11516e-07
-0.000169146
-5.66712e-05
1.48094e-07
-0.000174892
-8.46691e-05
1.92567e-07
-0.000175729
-0.000123857
2.50831e-07
-0.00015656
-0.000191072
6.39721e-08
-0.000122242
-0.000250717
2.69172e-07
-0.00039578
-6.60997e-07
-0.00016436
0.000469334
-8.48362e-07
-0.000188648
0.000267718
-6.74886e-07
-0.000196529
0.000201147
1.66498e-07
-0.000192234
0.000136006
1.51112e-07
-0.000182888
9.26291e-05
2.13784e-07
-0.00017322
6.37674e-05
1.99527e-07
-0.000165006
4.38391e-05
1.70933e-07
-0.000158941
2.95398e-05
1.4296e-07
-0.000155296
1.8724e-05
1.23001e-07
-0.000154205
9.9226e-06
1.12732e-07
-0.000155691
2.00798e-06
1.1042e-07
-0.000160253
-5.66959e-06
1.3033e-07
-0.00016821
-1.43158e-05
1.64256e-07
-0.000180148
-2.51995e-05
2.1498e-07
-0.000196741
-4.0358e-05
2.79692e-07
-0.000217142
-6.45963e-05
3.28037e-07
-0.000239956
-0.000101461
4.17876e-07
-0.00024295
-0.000187915
-1.63139e-07
-0.000218677
-0.000275111
1.20373e-07
-0.000612662
-1.79478e-06
-0.000235998
0.000708846
-3.51423e-06
-0.000231156
0.000262722
1.53831e-07
-0.000212791
0.000181867
9.14888e-07
-0.000182201
0.000104413
1.00314e-06
-0.000152684
6.22476e-05
8.64562e-07
-0.000129507
3.99472e-05
6.43146e-07
-0.000112453
2.63126e-05
4.72636e-07
-0.000100631
1.73633e-05
3.54163e-07
-9.32682e-05
1.10799e-05
2.81403e-07
-8.9852e-05
6.26085e-06
2.45571e-07
-9.02147e-05
2.12852e-06
2.42166e-07
-9.42849e-05
-1.86989e-06
2.70536e-07
-0.000102484
-6.46676e-06
3.49928e-07
-0.000115156
-1.30314e-05
5.03754e-07
-0.000132871
-2.34389e-05
7.95888e-07
-0.000154524
-4.41776e-05
1.23435e-06
-0.00017774
-8.06475e-05
2.40263e-06
-0.000192405
-0.000175164
1.91485e-06
-0.000177482
-0.000294834
4.80014e-06
-0.000789303
-8.42132e-07
0.000712975
-4.12893e-06
0.000979155
-3.45871e-06
0.00116079
2.36031e-07
0.00126431
8.86193e-07
0.0013257
8.59936e-07
0.00136489
7.57466e-07
0.00139061
5.93078e-07
0.00140752
4.48916e-07
0.00141825
3.54288e-07
0.00142421
3.05124e-07
0.00142604
2.96292e-07
0.00142384
3.2887e-07
0.00141696
4.1714e-07
0.00140336
5.64607e-07
0.00137903
8.87481e-07
0.00133385
1.0055e-06
0.00125101
2.18886e-06
0.00107545
3.98633e-07
0.000780835
-2.17808e-07
-8.46757e-06
-4.1402e-06
4.14101e-06
-2.62822e-09
-8.60065e-06
4.46502e-06
2.2567e-09
-1.28517e-05
4.25589e-06
3.70032e-09
-1.67729e-05
3.92595e-06
4.29857e-09
-2.02681e-05
3.49932e-06
4.28086e-09
-2.32538e-05
2.98923e-06
3.8382e-09
-2.56607e-05
2.4098e-06
3.08755e-09
-2.7434e-05
1.77557e-06
2.10537e-09
-2.85337e-05
1.1011e-06
9.50107e-10
-2.89337e-05
4.00786e-07
-3.71269e-10
-2.86227e-05
-3.11059e-07
-1.76023e-09
-2.76036e-05
-1.01982e-06
-3.19828e-09
-2.58946e-05
-1.71052e-06
-4.63747e-09
-2.35294e-05
-2.36738e-06
-6.0046e-09
-2.05585e-05
-2.97387e-06
-7.20948e-09
-1.70492e-05
-3.51292e-06
-8.13156e-09
-1.30858e-05
-3.96756e-06
-8.60154e-09
-8.76866e-06
-4.32155e-06
-8.37267e-09
-4.22535e-06
-4.54744e-06
-7.15846e-09
-4.22563e-06
-2.37327e-09
-4.67391e-06
8.8119e-06
-7.68035e-09
-9.68815e-06
9.48037e-06
-2.86947e-09
-1.44652e-05
9.03446e-06
-1.00578e-09
-1.88692e-05
8.33137e-06
1.05188e-10
-2.27916e-05
7.4231e-06
5.5819e-10
-2.61397e-05
6.33846e-06
6.71819e-10
-2.88368e-05
5.10786e-06
5.39369e-10
-3.08228e-05
3.76233e-06
2.24817e-10
-3.20537e-05
2.33264e-06
-2.59655e-10
-3.25014e-05
8.49039e-07
-8.79897e-10
-3.21534e-05
-6.58841e-07
-1.55221e-09
-3.10128e-05
-2.16029e-06
-2.29908e-09
-2.90991e-05
-3.62422e-06
-3.07477e-09
-2.64492e-05
-5.01759e-06
-3.81952e-09
-2.3118e-05
-6.3055e-06
-4.45379e-09
-1.91801e-05
-7.45163e-06
-4.8646e-09
-1.47291e-05
-8.4195e-06
-4.88547e-09
-9.87766e-06
-9.17386e-06
-4.26579e-09
-4.76998e-06
-9.65556e-06
-2.72768e-09
-8.99204e-06
2.36045e-09
-4.91624e-06
1.37245e-05
-1.02004e-08
-1.01892e-05
1.47539e-05
-5.12856e-09
-1.52075e-05
1.40539e-05
-3.19459e-09
-1.98281e-05
1.29532e-05
-1.93611e-09
-2.39381e-05
1.15341e-05
-1.2085e-09
-2.74419e-05
9.84317e-06
-8.32063e-10
-3.02619e-05
7.92859e-06
-6.94434e-10
-3.23378e-05
5.83892e-06
-7.33752e-10
-3.36261e-05
3.6215e-06
-9.14496e-10
-3.40989e-05
1.3222e-06
-1.21116e-09
-3.37429e-05
-1.01446e-06
-1.59139e-09
-3.25606e-05
-3.34229e-06
-2.05997e-09
-3.057e-05
-5.6147e-06
-2.57618e-09
-2.78063e-05
-7.78141e-06
-3.08784e-09
-2.43234e-05
-9.7886e-06
-3.51864e-09
-2.0196e-05
-1.15794e-05
-3.75462e-09
-1.55204e-05
-1.30956e-05
-3.62263e-09
-1.04143e-05
-1.42804e-05
-2.85719e-09
-5.03051e-06
-1.50393e-05
-1.17004e-09
-1.40182e-05
4.14607e-09
-5.27457e-06
1.89952e-05
-1.25906e-08
-1.09281e-05
2.04082e-05
-7.20627e-09
-1.63005e-05
1.94276e-05
-5.03019e-09
-2.12373e-05
1.78913e-05
-3.60709e-09
-2.5619e-05
1.5917e-05
-2.69304e-09
-2.93469e-05
1.3572e-05
-2.11597e-09
-3.23427e-05
1.09252e-05
-1.76445e-09
-3.45472e-05
8.04403e-06
-1.57939e-09
-3.5918e-05
4.99274e-06
-1.53017e-09
-3.64277e-05
1.83235e-06
-1.59662e-09
-3.60629e-05
-1.37896e-06
-1.77873e-09
-3.48242e-05
-4.58076e-06
-2.06041e-09
-3.27267e-05
-7.71209e-06
-2.41101e-09
-2.98023e-05
-1.07059e-05
-2.78384e-09
-2.61022e-05
-1.34889e-05
-3.10263e-09
-2.17004e-05
-1.59816e-05
-3.24733e-09
-1.66957e-05
-1.81008e-05
-3.02987e-09
-1.12133e-05
-1.97633e-05
-2.15738e-09
-5.41957e-06
-2.08329e-05
-3.2068e-10
-1.94331e-05
5.36377e-09
-5.77606e-06
2.47673e-05
-1.5201e-08
-1.19603e-05
2.65935e-05
-9.36108e-09
-1.78234e-05
2.52923e-05
-6.91887e-09
-2.3195e-05
2.32645e-05
-5.26858e-09
-2.7947e-05
2.06703e-05
-4.15023e-09
-3.19775e-05
1.76037e-05
-3.37157e-09
-3.5209e-05
1.41576e-05
-2.8166e-09
-3.75848e-05
1.04205e-05
-2.42699e-09
-3.90656e-05
6.47394e-06
-2.17977e-09
-3.96258e-05
2.3929e-06
-2.06895e-09
-3.92515e-05
-1.75299e-06
-2.08927e-09
-3.79409e-05
-5.89127e-06
-2.23125e-09
-3.57041e-05
-9.9489e-06
-2.47386e-09
-3.2567e-05
-1.38432e-05
-2.77398e-09
-2.85753e-05
-1.74809e-05
-3.05306e-09
-2.38001e-05
-2.07573e-05
-3.17975e-09
-1.83423e-05
-2.35594e-05
-2.94142e-09
-1.23361e-05
-2.577e-05
-2.00185e-09
-5.96764e-06
-2.72014e-05
9.25361e-12
-2.53956e-05
6.20193e-09
-6.44135e-06
3.12046e-05
-1.83762e-08
-1.33262e-05
3.34799e-05
-1.19225e-08
-1.98316e-05
3.17997e-05
-9.14498e-09
-2.57657e-05
2.92006e-05
-7.20076e-09
-3.09905e-05
2.58968e-05
-5.82291e-09
-3.54023e-05
2.20168e-05
-4.79674e-09
-3.89272e-05
1.76834e-05
-4.00423e-09
-4.15147e-05
1.30087e-05
-3.39087e-09
-4.31315e-05
8.09112e-06
-2.93521e-09
-4.37559e-05
3.01759e-06
-2.63353e-09
-4.33742e-05
-2.13461e-06
-2.48994e-09
-4.19806e-05
-7.28495e-06
-2.50551e-09
-3.95775e-05
-1.23522e-05
-2.66799e-09
-3.61806e-05
-1.72405e-05
-2.93872e-09
-3.18251e-05
-2.1837e-05
-3.23629e-09
-2.65745e-05
-2.60087e-05
-3.41357e-09
-2.05293e-05
-2.96056e-05
-3.22256e-09
-1.38343e-05
-3.24659e-05
-2.26288e-09
-6.70122e-06
-3.43346e-05
-1.02015e-10
-3.20913e-05
6.78916e-09
-7.30022e-06
3.85006e-05
-2.24691e-08
-1.50834e-05
4.12653e-05
-1.52201e-08
-2.24021e-05
3.91212e-05
-1.19942e-08
-2.9037e-05
3.58379e-05
-9.64637e-09
-3.48397e-05
3.17015e-05
-7.90748e-09
-3.97087e-05
2.68872e-05
-6.54563e-09
-4.35793e-05
2.1555e-05
-5.44072e-09
-4.64133e-05
1.58433e-05
-4.53494e-09
-4.81887e-05
9.86677e-06
-3.80986e-09
-4.8891e-05
3.71999e-06
-3.27085e-09
-4.85078e-05
-2.51801e-06
-2.93355e-09
-4.70275e-05
-8.76554e-06
-2.81044e-09
-4.44408e-05
-1.49394e-05
-2.9015e-09
-4.07464e-05
-2.09356e-05
-3.17623e-09
-3.59611e-05
-2.66232e-05
-3.55235e-09
-3.01327e-05
-3.18382e-05
-3.8642e-09
-2.33551e-05
-3.63845e-05
-3.81624e-09
-1.57822e-05
-4.004e-05
-2.91594e-09
-7.65936e-06
-4.24579e-05
-6.30257e-10
-3.97445e-05
7.12836e-09
-8.39639e-06
4.68928e-05
-2.79211e-08
-1.73149e-05
5.01868e-05
-1.96592e-08
-2.56434e-05
4.74531e-05
-1.58096e-08
-3.31282e-05
4.33259e-05
-1.28758e-08
-3.96136e-05
3.81893e-05
-1.06066e-08
-4.50076e-05
3.22828e-05
-8.75838e-09
-4.9265e-05
2.58134e-05
-7.20392e-09
-5.23698e-05
1.89487e-05
-5.88427e-09
-5.43195e-05
1.18165e-05
-4.78853e-09
-5.51123e-05
4.51248e-06
-3.93189e-09
-5.47389e-05
-2.89189e-06
-3.34243e-09
-5.31799e-05
-1.03253e-05
-3.04507e-09
-5.04083e-05
-1.77119e-05
-3.05807e-09
-4.63962e-05
-2.49488e-05
-3.36655e-09
-4.11291e-05
-3.18917e-05
-3.89441e-09
-3.46251e-05
-3.83438e-05
-4.45885e-09
-2.69592e-05
-4.40522e-05
-4.70464e-09
-1.82891e-05
-4.87118e-05
-4.00935e-09
-8.90059e-06
-5.18471e-05
-1.6872e-09
-4.86383e-05
7.10488e-09
-9.79524e-06
5.66837e-05
-3.53632e-08
-2.01412e-05
6.05368e-05
-2.58145e-08
-2.97082e-05
5.70246e-05
-2.10534e-08
-3.82022e-05
5.18237e-05
-1.72293e-08
-4.54675e-05
4.54573e-05
-1.41512e-08
-5.14367e-05
3.82537e-05
-1.15659e-08
-5.61012e-05
3.04787e-05
-9.34077e-09
-5.94828e-05
2.23303e-05
-7.42233e-09
-6.16104e-05
1.39436e-05
-5.80623e-09
-6.2503e-05
5.40427e-06
-4.51469e-09
-6.21585e-05
-3.23747e-06
-3.58482e-09
-6.05463e-05
-1.19388e-05
-3.05349e-09
-5.76142e-05
-2.06456e-05
-2.96415e-09
-5.32939e-05
-2.92709e-05
-3.33207e-09
-4.75201e-05
-3.76675e-05
-4.10404e-09
-4.02581e-05
-4.5608e-05
-5.09254e-09
-3.15416e-05
-5.27712e-05
-5.87554e-09
-2.15166e-05
-5.87392e-05
-5.65096e-09
-1.05146e-05
-6.28503e-05
-3.49519e-09
-5.91452e-05
6.44771e-09
-1.15977e-05
6.82771e-05
-4.57647e-08
-2.37411e-05
7.26857e-05
-3.45631e-08
-3.4815e-05
6.81039e-05
-2.83824e-08
-4.44813e-05
6.14944e-05
-2.31508e-08
-5.26032e-05
5.35821e-05
-1.8798e-08
-5.91647e-05
4.48167e-05
-1.50674e-08
-6.42206e-05
3.5535e-05
-1.18342e-08
-6.78538e-05
2.59631e-05
-9.05011e-09
-7.01427e-05
1.62313e-05
-6.70948e-09
-7.11382e-05
6.3981e-06
-4.82957e-09
-7.08512e-05
-3.52653e-06
-3.44484e-09
-6.92375e-05
-1.35546e-05
-2.59566e-09
-6.6209e-05
-2.36765e-05
-2.3517e-09
-6.16386e-05
-3.38439e-05
-2.78975e-09
-5.53823e-05
-4.39267e-05
-3.91125e-09
-4.73162e-05
-5.36773e-05
-5.56745e-09
-3.73918e-05
-6.26991e-05
-7.27638e-09
-2.57096e-05
-7.04247e-05
-8.00139e-09
-1.26443e-05
-7.59176e-05
-6.4121e-09
-7.17813e-05
4.631e-09
-1.39664e-05
8.22392e-05
-6.06917e-08
-2.83866e-05
8.71128e-05
-4.72969e-08
-4.12811e-05
8.10051e-05
-3.87393e-08
-5.22721e-05
7.24904e-05
-3.12042e-08
-6.12828e-05
6.25957e-05
-2.47881e-08
-6.83943e-05
5.19293e-05
-1.92625e-08
-7.37669e-05
4.09071e-05
-1.45188e-08
-7.75778e-05
2.97724e-05
-1.05038e-08
-7.99792e-05
1.86303e-05
-7.18659e-09
-8.10692e-05
7.48527e-06
-4.54639e-09
-8.08792e-05
-3.71986e-06
-2.57866e-09
-7.93522e-05
-1.50852e-05
-1.33703e-09
-7.63517e-05
-2.66808e-05
-8.8648e-10
-7.16664e-05
-3.85332e-05
-1.34363e-09
-6.5036e-05
-5.05614e-05
-2.86909e-09
-5.61925e-05
-6.25255e-05
-5.48795e-09
-4.49362e-05
-7.39604e-05
-8.72518e-09
-3.12493e-05
-8.41166e-05
-1.12619e-08
-1.55307e-05
-9.16394e-05
-1.09796e-08
-8.73036e-05
7.67963e-10
-1.71796e-05
9.94141e-05
-8.27984e-08
-3.45024e-05
0.000104444
-6.62577e-08
-4.95757e-05
9.60859e-05
-5.34315e-08
-6.20006e-05
8.49203e-05
-4.20278e-08
-7.18457e-05
7.24431e-05
-3.22172e-08
-7.93654e-05
5.94489e-05
-2.38805e-08
-8.48858e-05
4.64255e-05
-1.69137e-08
-8.87247e-05
3.36081e-05
-1.12219e-08
-9.11414e-05
2.10429e-05
-6.6746e-09
-9.23004e-05
8.63955e-06
-3.12724e-09
-9.22598e-05
-3.76547e-06
-5.41556e-10
-9.0953e-05
-1.63974e-05
1.45929e-09
-8.81881e-05
-2.94516e-05
2.4099e-09
-8.36445e-05
-4.30829e-05
1.97756e-09
-7.68886e-05
-5.73234e-05
-3.49658e-10
-6.74314e-05
-7.19895e-05
-4.09921e-09
-5.4812e-05
-8.65871e-05
-9.71074e-09
-3.8746e-05
-0.00010019
-1.56432e-08
-1.96153e-05
-0.000110776
-1.80179e-08
-0.000106911
-8.13956e-09
-2.1747e-05
0.000121154
-1.17006e-07
-4.27712e-05
0.000125476
-9.49932e-08
-6.0402e-05
0.000113724
-7.40813e-08
-7.42599e-05
9.87825e-05
-5.6122e-08
-8.4728e-05
8.29118e-05
-4.06902e-08
-9.23464e-05
6.70651e-05
-2.80273e-08
-9.77006e-05
5.17755e-05
-1.79761e-08
-0.000101314
3.72162e-05
-1.02116e-08
-0.000103584
2.3306e-05
-4.28783e-09
-0.000104759
9.80752e-06
5.14996e-11
-0.000104933
-3.59898e-06
4.13268e-09
-0.000104037
-1.7302e-05
6.92251e-09
-0.00010182
-3.16764e-05
8.56446e-09
-9.78393e-05
-4.70732e-05
8.56233e-09
-9.14397e-05
-6.37326e-05
6.13346e-09
-8.17829e-05
-8.16559e-05
-1.8676e-10
-6.79799e-05
-0.000100401
-8.94845e-09
-4.91988e-05
-0.000118983
-2.12418e-08
-2.57238e-05
-0.00013426
-2.88706e-08
-0.000132629
-2.44069e-08
-2.86358e-05
0.000149776
-1.71209e-07
-5.43212e-05
0.000151166
-1.38438e-07
-7.48236e-05
0.000134233
-1.02078e-07
-8.98735e-05
0.000113834
-7.31939e-08
-0.000100461
9.34971e-05
-4.85209e-08
-0.000107604
7.42025e-05
-2.96457e-08
-0.000112284
5.64481e-05
-1.57696e-08
-0.000115282
4.02055e-05
-5.83416e-09
-0.000117156
2.51707e-05
1.41712e-09
-0.000118253
1.08942e-05
7.59691e-09
-0.000118715
-3.14823e-06
1.23949e-08
-0.000118481
-1.75487e-05
1.62688e-08
-0.000117258
-3.29133e-05
1.91642e-08
-0.000114478
-4.98676e-05
2.03992e-08
-0.000109239
-6.89867e-05
1.85852e-08
-0.000100252
-9.0657e-05
1.14428e-08
-8.58939e-05
-0.000114774
-3.44273e-09
-6.42628e-05
-0.000140634
-2.72468e-08
-3.53673e-05
-0.000163172
-4.28375e-08
-0.000168003
-5.61411e-08
-3.93396e-05
0.000189069
-2.7287e-07
-7.09022e-05
0.000182719
-2.08474e-07
-9.44199e-05
0.000157752
-1.38001e-07
-0.000109936
0.000129347
-9.05694e-08
-0.000119643
0.000103198
-5.13503e-08
-0.000125368
7.99182e-05
-2.45184e-08
-0.000128602
5.96708e-05
-6.81504e-09
-0.000130421
4.20124e-05
5.20373e-09
-0.000131548
2.62847e-05
1.39284e-08
-0.000132423
1.17533e-05
2.04489e-08
-0.000133241
-2.34627e-06
2.61739e-08
-0.000133973
-1.68351e-05
3.16744e-08
-0.000134324
-3.25824e-05
3.70106e-08
-0.000133651
-5.05613e-05
4.12573e-08
-0.000130828
-7.18322e-05
4.22198e-08
-0.000124064
-9.74437e-05
3.5934e-08
-0.000110758
-0.000128102
1.66417e-08
-8.67481e-05
-0.000164676
-3.13483e-08
-5.15894e-05
-0.000198355
-5.64429e-08
-0.000219631
-1.22235e-07
-5.93464e-05
0.000248371
-3.65161e-07
-9.61419e-05
0.000219492
-2.94472e-07
-0.000121757
0.000183373
-1.67689e-07
-0.000135829
0.000143414
-9.78491e-08
-0.00014289
0.000110251
-3.8877e-08
-0.000145725
8.27433e-05
-4.35454e-09
-0.000146416
6.03469e-05
1.6704e-08
-0.000146311
4.18908e-05
2.85921e-08
-0.000146249
2.62039e-05
3.59311e-08
-0.000146706
1.21897e-05
4.1847e-08
-0.00014792
-1.15318e-06
4.83707e-08
-0.000149923
-1.48556e-05
5.637e-08
-0.000152519
-3.00124e-05
6.63739e-08
-0.000155127
-4.79798e-05
7.73167e-08
-0.000156531
-7.04563e-05
8.60342e-08
-0.000154506
-9.94953e-05
8.64449e-08
-0.000145571
-0.000137063
6.9275e-08
-0.000121123
-0.000189173
-2.28039e-08
-8.17314e-05
-0.000237773
-4.971e-08
-0.000301488
-2.66039e-07
-8.25463e-05
0.000330473
-9.46871e-07
-0.000129365
0.000266166
-5.3584e-07
-0.00015819
0.000212187
-2.19044e-07
-0.000168768
0.000153992
-8.23315e-08
-0.000170486
0.000111973
7.94603e-09
-0.000168347
8.06017e-05
4.73306e-08
-0.000165095
5.7086e-05
6.434e-08
-0.000162215
3.8995e-05
7.0358e-08
-0.000160466
2.44371e-05
7.2672e-08
-0.000160248
1.19502e-05
7.58559e-08
-0.000161848
4.25601e-07
8.32313e-08
-0.000165336
-1.13934e-05
9.47484e-08
-0.000170769
-2.46076e-05
1.13073e-07
-0.000177871
-4.09036e-05
1.3744e-07
-0.000185747
-6.25987e-05
1.66506e-07
-0.000191932
-9.33116e-05
1.94122e-07
-0.000192786
-0.000136174
2.15467e-07
-0.000172022
-0.000209952
7.92478e-08
-0.000134371
-0.000275317
1.62104e-07
-0.000436106
-4.14145e-07
-0.000179321
0.000509637
-6.91602e-07
-0.000207296
0.000294024
-5.58494e-07
-0.000216139
0.000221194
1.67903e-09
-0.00021156
0.000149502
6.16264e-08
-0.000201241
0.000101726
1.41169e-07
-0.00019055
6.99529e-05
1.57772e-07
-0.000181462
4.80172e-05
1.51778e-07
-0.000174751
3.22879e-05
1.39042e-07
-0.000170717
2.03971e-05
1.28718e-07
-0.0001695
1.07215e-05
1.24986e-07
-0.000171109
2.01499e-06
1.29635e-07
-0.000176095
-6.42593e-06
1.48914e-07
-0.000184783
-1.59361e-05
1.81326e-07
-0.000197798
-2.78992e-05
2.25662e-07
-0.000215866
-4.4527e-05
2.7521e-07
-0.000238015
-7.11382e-05
3.04271e-07
-0.000262717
-0.000111382
3.28282e-07
-0.000266187
-0.000206582
-6.2972e-08
-0.000238399
-0.000303012
2.67e-08
-0.000675156
-1.14347e-06
-0.000262516
0.000770797
-2.15781e-06
-0.000256579
0.000288532
-2.90781e-07
-0.000235326
0.000200525
3.31348e-07
-0.000200678
0.00011537
4.87996e-07
-0.000167355
6.87744e-05
4.92036e-07
-0.000141281
4.41107e-05
4.12063e-07
-0.000122135
2.90107e-05
3.33203e-07
-0.000108871
1.91067e-05
2.71023e-07
-0.000100589
1.21659e-05
2.30682e-07
-9.66857e-05
6.85119e-06
2.12303e-07
-9.69452e-05
2.30041e-06
2.16219e-07
-0.000101249
-2.09494e-06
2.43865e-07
-0.000110014
-7.12731e-06
3.06132e-07
-0.000123529
-1.42958e-05
4.1536e-07
-0.000142309
-2.55528e-05
6.01182e-07
-0.000164937
-4.81352e-05
8.59381e-07
-0.000188119
-8.72695e-05
1.47283e-06
-0.00020337
-0.000190525
1.10838e-06
-0.000182893
-0.000321201
2.51277e-06
-0.000858237
-6.54134e-07
0.000769187
-2.51905e-06
0.00105643
-2.16462e-06
0.00125728
-9.35392e-08
0.00137313
4.00937e-07
0.00144228
4.89537e-07
0.00148667
4.80241e-07
0.00151586
4.08913e-07
0.00153508
3.33185e-07
0.00154733
2.78918e-07
0.00155423
2.50589e-07
0.00155658
2.48961e-07
0.00155454
2.76375e-07
0.00154749
3.40512e-07
0.00153331
4.43027e-07
0.00150801
6.36035e-07
0.00146017
7.09511e-07
0.00137379
1.30263e-06
0.00118344
2.23314e-07
0.000862112
-9.31304e-08
-4.59227e-06
-4.1512e-06
4.1516e-06
-3.02081e-09
-8.62503e-06
4.4773e-06
-1.22225e-09
-1.28888e-05
4.26765e-06
-1.75503e-10