/*--------------------------------*- C++ -*----------------------------------*\
  =========                 |
  \\      /  F ield         | OpenFOAM: The Open Source CFD Toolbox
   \\    /   O peration     | Website:  https://openfoam.org
    \\  /    A nd           | Version:  9
     \\/     M anipulation  |
\*---------------------------------------------------------------------------*/
FoamFile
{
    format      ascii;
    class       volVectorField;
    location    "1";
    object      U;
}
// * * * * * * * * * * * * * * * * * * * * * * * * * * * * * * * * * * * * * //

dimensions      [0 1 -1 0 0 0 0];

internalField   nonuniform List<vector> 
8000
(
(-0.000186411 0.000183864 -9.54209e-08)
(-0.00057924 0.000197819 6.19723e-07)
(-0.000979885 0.000188574 7.51349e-07)
(-0.00135336 0.000174018 7.68474e-07)
(-0.0016924 0.00015518 7.16433e-07)
(-0.00198875 0.000132634 6.23911e-07)
(-0.0022354 0.000106997 5.04728e-07)
(-0.00242667 7.89098e-05 3.66245e-07)
(-0.00255823 4.90164e-05 2.13113e-07)
(-0.00262703 1.79583e-05 4.88269e-08)
(-0.00263137 -1.36263e-05 -1.22311e-07)
(-0.00257082 -4.50798e-05 -2.96576e-07)
(-0.00244632 -7.57311e-05 -4.70113e-07)
(-0.00226021 -0.000104875 -6.37386e-07)
(-0.00201632 -0.000131774 -7.90955e-07)
(-0.00172 -0.000155669 -9.20015e-07)
(-0.00137821 -0.00017581 -1.00674e-06)
(-0.00099947 -0.000191486 -1.01865e-06)
(-0.000591587 -0.000201518 -9.04414e-07)
(-0.000190578 -0.000187711 -1.92285e-07)
(-0.000209895 0.000584256 -8.219e-07)
(-0.00065122 0.000627348 -8.77437e-08)
(-0.00110034 0.000597922 8.70951e-08)
(-0.0015188 0.000551602 1.61889e-07)
(-0.00189843 0.000491703 1.78799e-07)
(-0.00223 0.000420091 1.66484e-07)
(-0.00250575 0.000338753 1.37131e-07)
(-0.00271945 0.000249729 9.59726e-08)
(-0.00286636 0.000155057 4.51761e-08)
(-0.00294318 5.67496e-05 -1.40303e-08)
(-0.00294803 -4.31938e-05 -7.80518e-08)
(-0.00288047 -0.000142737 -1.47603e-07)
(-0.00274148 -0.000239781 -2.20345e-07)
(-0.0025336 -0.000332116 -2.92885e-07)
(-0.00226098 -0.000417416 -3.59819e-07)
(-0.00192948 -0.000493271 -4.12089e-07)
(-0.00154681 -0.000557278 -4.32968e-07)
(-0.00112244 -0.000607131 -3.89823e-07)
(-0.000665179 -0.000639041 -2.3226e-07)
(-0.000214615 -0.000596392 5.19122e-07)
(-0.00022074 0.00102393 -1.05843e-06)
(-0.000684832 0.00109792 -2.91138e-07)
(-0.00115683 0.00104608 -1.01908e-07)
(-0.00159609 0.000964617 -1.13913e-08)
(-0.00199407 0.000859435 2.44933e-08)
(-0.00234121 0.000733903 3.35003e-08)
(-0.0026296 0.000591558 2.77477e-08)
(-0.00285296 0.000435992 1.21079e-08)
(-0.00300656 0.000270742 -1.1447e-08)
(-0.00308715 9.9261e-05 -4.14413e-08)
(-0.00309283 -7.50399e-05 -7.76001e-08)
(-0.00302307 -0.00024871 -1.19995e-07)
(-0.00287877 -0.000418171 -1.67349e-07)
(-0.00266229 -0.000579626 -2.16907e-07)
(-0.00237765 -0.000729036 -2.63725e-07)
(-0.00203069 -0.000862165 -2.98836e-07)
(-0.0016292 -0.000974727 -3.04942e-07)
(-0.00118302 -0.00106256 -2.47623e-07)
(-0.000701398 -0.00111888 -7.4323e-08)
(-0.000226341 -0.00104569 7.15718e-07)
(-0.000236845 0.00148663 -1.24563e-06)
(-0.000734613 0.00159304 -4.26981e-07)
(-0.00124031 0.00151704 -2.21773e-07)
(-0.00171007 0.00139799 -1.19796e-07)
(-0.0021348 0.00124466 -7.37174e-08)
(-0.00250449 0.00106215 -5.35835e-08)
(-0.00281106 0.000855715 -4.67407e-08)
(-0.00304826 0.000630588 -4.83216e-08)
(-0.00321148 0.000391828 -5.6723e-08)
(-0.00329754 0.000144293 -7.15608e-08)
(-0.00330456 -0.000107284 -9.3162e-08)
(-0.00323192 -0.000358125 -1.21946e-07)
(-0.00308028 -0.000603252 -1.57027e-07)
(-0.00285173 -0.000837319 -1.96161e-07)
(-0.00254998 -0.00105453 -2.34594e-07)
(-0.00218068 -0.00124869 -2.63014e-07)
(-0.0017517 -0.0014134 -2.62819e-07)
(-0.00127333 -0.00154232 -1.96493e-07)
(-0.000755553 -0.00162532 -7.44584e-09)
(-0.000243926 -0.00152016 8.41024e-07)
(-0.000259411 0.0019885 -1.43501e-06)
(-0.000804244 0.00212963 -5.4277e-07)
(-0.0013568 0.0020265 -3.18938e-07)
(-0.00186869 0.00186565 -2.06111e-07)
(-0.00233005 0.00165927 -1.52809e-07)
(-0.00273032 0.00141456 -1.25782e-07)
(-0.00306135 0.0011388 -1.11252e-07)
(-0.00331705 0.000839024 -1.04157e-07)
(-0.00349307 0.000521841 -1.03222e-07)
(-0.00358648 0.000193438 -1.08767e-07)
(-0.00359546 -0.000140265 -1.21648e-07)
(-0.00351924 -0.000473334 -1.42857e-07)
(-0.00335815 -0.000799534 -1.72163e-07)
(-0.00311374 -0.00111203 -2.078e-07)
(-0.00278918 -0.00140323 -2.45084e-07)
(-0.0023897 -0.00166476 -2.73981e-07)
(-0.00192307 -0.00188771 -2.73742e-07)
(-0.00140012 -0.00206307 -2.02011e-07)
(-0.000831798 -0.00217655 4.24743e-09)
(-0.000268733 -0.00203735 9.35558e-07)
(-0.000289383 0.00254331 -1.66123e-06)
(-0.000896545 0.00272202 -6.71466e-07)
(-0.00151072 0.00258739 -4.2479e-07)
(-0.00207746 0.00237869 -2.99363e-07)
(-0.00258589 0.00211234 -2.3873e-07)
(-0.00302496 0.00179827 -2.05285e-07)
(-0.0033866 0.00144618 -1.83775e-07)
(-0.00366523 0.00106511 -1.68863e-07)
(-0.00385707 0.00066325 -1.59535e-07)
(-0.00395965 0.000247967 -1.56703e-07)
(-0.00397133 -0.000173885 -1.62012e-07)
(-0.00389119 -0.000595513 -1.77271e-07)
(-0.00371899 -0.00100968 -2.03269e-07)
(-0.00345543 -0.00140823 -2.38868e-07)
(-0.00310271 -0.00178174 -2.79505e-07)
(-0.00266517 -0.0021194 -3.14173e-07)
(-0.00215019 -0.00240926 -3.19114e-07)
(-0.00156899 -0.00263878 -2.45071e-07)
(-0.000933769 -0.00278842 -2.01669e-08)
(-0.000301993 -0.00261266 1.02131e-06)
(-0.000328135 0.00316719 -1.95038e-06)
(-0.00101557 0.00338679 -8.35962e-07)
(-0.00170831 0.00321433 -5.60719e-07)
(-0.00234394 0.00294921 -4.19039e-07)
(-0.00291047 0.00261337 -3.48802e-07)
(-0.00339649 0.00222038 -3.06907e-07)
(-0.00379451 0.00178293 -2.76315e-07)
(-0.00409997 0.00131235 -2.51306e-07)
(-0.00431021 0.000818341 -2.31252e-07)
(-0.00442361 0.000309187 -2.17917e-07)
(-0.00443894 -0.000207746 -2.14068e-07)
(-0.00435504 -0.000725306 -2.22486e-07)
(-0.00417087 -0.0012357 -2.45606e-07)
(-0.0038858 -0.00172977 -2.83258e-07)
(-0.00350035 -0.00219635 -3.31258e-07)
(-0.00301722 -0.00262189 -3.77529e-07)
(-0.00244269 -0.00299069 -3.94375e-07)
(-0.00178803 -0.00328546 -3.22879e-07)
(-0.00106679 -0.00347964 -7.89787e-08)
(-0.00034553 -0.00326461 1.10283e-06)
(-0.000377702 0.00387957 -2.33066e-06)
(-0.00116721 0.00414359 -1.06008e-06)
(-0.00195846 0.00392399 -7.48406e-07)
(-0.00267865 0.00359035 -5.84093e-07)
(-0.00331473 0.00317204 -4.99239e-07)
(-0.0038554 0.00268758 -4.43913e-07)
(-0.00429463 0.00215347 -3.99005e-07)
(-0.00462982 0.00158357 -3.58525e-07)
(-0.00486023 0.000988957 -3.22559e-07)
(-0.00498573 0.00037836 -2.9408e-07)
(-0.00500583 -0.000241025 -2.77329e-07)
(-0.00491915 -0.000862497 -2.76127e-07)
(-0.00472346 -0.00147845 -2.95455e-07)
(-0.00441608 -0.00207933 -3.36746e-07)
(-0.00399483 -0.00265248 -3.96814e-07)
(-0.00345952 -0.0031814 -4.62737e-07)
(-0.00281405 -0.00364568 -5.01989e-07)
(-0.0020689 -0.00402158 -4.42332e-07)
(-0.00123877 -0.00427278 -1.82844e-07)
(-0.000402097 -0.00401603 1.17227e-06)
(-0.000441156 0.00470474 -2.84199e-06)
(-0.00136022 0.00501627 -1.37816e-06)
(-0.00227392 0.00473571 -1.01761e-06)
(-0.00309618 0.00431628 -8.19109e-07)
(-0.00381325 0.00379775 -7.09723e-07)
(-0.00441507 0.00320548 -6.31114e-07)
(-0.00489853 0.00256078 -5.62077e-07)
(-0.00526449 0.00188029 -4.96714e-07)
(-0.00551542 0.0011761 -4.36258e-07)
(-0.0056536 0.000456569 -3.85281e-07)
(-0.0056798 -0.000272316 -3.49723e-07)
(-0.00559247 -0.00100553 -3.34368e-07)
(-0.00538771 -0.00173689 -3.47516e-07)
(-0.00505983 -0.00245746 -3.93614e-07)
(-0.00460242 -0.00315373 -4.71805e-07)
(-0.00401043 -0.00380623 -5.69261e-07)
(-0.00328322 -0.00438877 -6.48132e-07)
(-0.00242865 -0.00486872 -6.18118e-07)
(-0.00146165 -0.00519589 -3.53764e-07)
(-0.000475954 -0.00489634 1.20679e-06)
(-0.000523313 0.00567432 -3.54871e-06)
(-0.00160787 0.00603471 -1.84784e-06)
(-0.00267336 0.00567217 -1.41457e-06)
(-0.00361696 0.00514194 -1.15971e-06)
(-0.00442554 0.00449877 -1.00622e-06)
(-0.00509238 0.00377747 -8.8577e-07)
(-0.00561982 0.00300533 -7.75343e-07)
(-0.00601451 0.00220182 -6.69717e-07)
(-0.00628396 0.00137928 -5.71841e-07)
(-0.00643415 0.00054446 -4.88108e-07)
(-0.00646793 -0.000299462 -4.25857e-07)
(-0.00638372 -0.00115086 -3.90639e-07)
(-0.00617539 -0.00200694 -3.93225e-07)
(-0.00583292 -0.00286111 -4.43927e-07)
(-0.0053436 -0.00370028 -5.47451e-07)
(-0.00469456 -0.00450241 -6.93808e-07)
(-0.00387699 -0.00523461 -8.40528e-07)
(-0.00289258 -0.00585227 -8.73908e-07)
(-0.00175403 -0.00628478 -6.28107e-07)
(-0.000573976 -0.00594506 1.15634e-06)
(-0.00063209 0.00683147 -4.56376e-06)
(-0.00193102 0.00723729 -2.57294e-06)
(-0.00318455 0.00676006 -2.01352e-06)
(-0.00426999 0.0060822 -1.65849e-06)
(-0.00517773 0.00528059 -1.42216e-06)
(-0.00590851 0.0044028 -1.22535e-06)
(-0.00647418 0.00348318 -1.0434e-06)
(-0.00689055 0.00254367 -8.7334e-07)
(-0.00717279 0.00159552 -7.2047e-07)
(-0.00733234 0.000641824 -5.91597e-07)
(-0.00737512 -0.000319417 -4.9348e-07)
(-0.00729995 -0.00129233 -4.31481e-07)
(-0.00709796 -0.00228012 -4.18794e-07)
(-0.00675317 -0.0032814 -4.71379e-07)
(-0.00624372 -0.00428616 -6.0628e-07)
(-0.00554478 -0.00527115 -8.2471e-07)
(-0.00463363 -0.00619634 -1.08454e-06)
(-0.00349903 -0.00700175 -1.24622e-06)
(-0.00214592 -0.00758616 -1.06312e-06)
(-0.00070788 -0.00721826 9.1616e-07)
(-0.000781315 0.0082384 -6.10205e-06)
(-0.00236369 0.00867411 -3.74442e-06)
(-0.00384973 0.00803053 -2.93097e-06)
(-0.0050969 0.0071499 -2.38984e-06)
(-0.00610496 0.00614296 -1.99403e-06)
(-0.0068898 0.00507329 -1.65667e-06)
(-0.00747896 0.00398331 -1.35365e-06)
(-0.00790217 0.0028959 -1.08585e-06)
(-0.00818581 0.00181834 -8.57843e-07)
(-0.0083491 0.000747088 -6.71175e-07)
(-0.00840208 -0.000328109 -5.27061e-07)
(-0.00834443 -0.00142027 -4.2816e-07)
(-0.00816446 -0.00254201 -3.92756e-07)
(-0.00783897 -0.00370109 -4.44044e-07)
(-0.00733334 -0.00489507 -6.15622e-07)
(-0.00660475 -0.00610402 -9.31094e-07)
(-0.00560828 -0.00728166 -1.37229e-06)
(-0.00430715 -0.00835023 -1.79295e-06)
(-0.00268798 -0.00916058 -1.75655e-06)
(-0.000899155 -0.00880122 2.74152e-07)
(-0.000997088 0.00999349 -8.6351e-06)
(-0.00296399 0.0104105 -5.70653e-06)
(-0.00473407 0.00951848 -4.33405e-06)
(-0.00615812 0.00835154 -3.44518e-06)
(-0.00725437 0.00707426 -2.73722e-06)
(-0.00806818 0.00576898 -2.14929e-06)
(-0.00865158 0.00448489 -1.65562e-06)
(-0.00905552 0.0032411 -1.25355e-06)
(-0.00932161 0.00203642 -9.32391e-07)
(-0.0094788 0.000856653 -6.77352e-07)
(-0.00954249 -0.00032035 -4.71768e-07)
(-0.00951386 -0.00152045 -3.27849e-07)
(-0.00937878 -0.00276995 -2.60535e-07)
(-0.00910623 -0.00409103 -2.96794e-07)
(-0.00864665 -0.00549545 -4.94815e-07)
(-0.00793138 -0.00697481 -9.38208e-07)
(-0.00688068 -0.00848476 -1.64871e-06)
(-0.00540852 -0.00993102 -2.60259e-06)
(-0.00347085 -0.0110843 -2.9006e-06)
(-0.00119229 -0.0108329 -1.13654e-06)
(-0.00133572 0.0122378 -1.29492e-05)
(-0.00383906 0.0125244 -8.9812e-06)
(-0.00593874 0.0112579 -6.39781e-06)
(-0.00754183 0.00967777 -4.88407e-06)
(-0.00868756 0.00804334 -3.57597e-06)
(-0.0094792 0.00645233 -2.58129e-06)
(-0.0100069 0.00495246 -1.8275e-06)
(-0.0103507 0.00355093 -1.26612e-06)
(-0.0105703 0.00223145 -8.43634e-07)
(-0.0107059 0.000963857 -5.0843e-07)
(-0.0107792 -0.000290084 -2.40137e-07)
(-0.010794 -0.00157321 -2.50975e-08)
(-0.0107351 -0.00293035 1.1338e-07)
(-0.0105645 -0.00440487 1.32025e-07)
(-0.0102171 -0.0060324 -6.57064e-08)
(-0.00959406 -0.00782905 -6.33855e-07)
(-0.00856547 -0.00976949 -1.70723e-06)
(-0.00694514 -0.011769 -3.73606e-06)
(-0.00466422 -0.0134518 -4.4408e-06)
(-0.00168452 -0.013543 -4.39275e-06)
(-0.00189997 0.0153801 -2.29722e-05)
(-0.00516848 0.0151476 -1.5235e-05)
(-0.00761614 0.0132792 -9.2972e-06)
(-0.00937375 0.0110871 -6.57403e-06)
(-0.0104799 0.00898766 -4.17609e-06)
(-0.0111591 0.00705806 -2.6271e-06)
(-0.011553 0.00532914 -1.5886e-06)
(-0.0117766 0.00378227 -8.87777e-07)
(-0.0119087 0.00237588 -3.96373e-07)
(-0.0120003 0.00105758 -4.86332e-09)
(-0.0120796 -0.000231151 3.20097e-07)
(-0.0121541 -0.00155359 6.0214e-07)
(-0.0122104 -0.00297738 8.59376e-07)
(-0.0122083 -0.00457422 1.04662e-06)
(-0.0120708 -0.00641643 1.02505e-06)
(-0.0116685 -0.00856532 5.00209e-07)
(-0.0108215 -0.0110421 -9.25982e-07)
(-0.00914098 -0.0138451 -5.26243e-06)
(-0.00658588 -0.0163517 -6.12658e-06)
(-0.00257907 -0.0174066 -1.19173e-05)
(-0.00305834 0.0187905 -2.9097e-05)
(-0.00747634 0.0180852 -2.25973e-05)
(-0.0100395 0.0154821 -1.09971e-05)
(-0.011835 0.0124619 -7.37607e-06)
(-0.0127166 0.00978495 -3.47499e-06)
(-0.0131377 0.00747812 -1.4511e-06)
(-0.0132826 0.00553019 -2.93409e-07)
(-0.0133038 0.00387485 3.73023e-07)
(-0.0132949 0.00243281 7.76876e-07)
(-0.0133128 0.00112192 1.08034e-06)
(-0.0133902 -0.000138658 1.40046e-06)
(-0.0135401 -0.00143371 1.76136e-06)
(-0.0137555 -0.00285337 2.2636e-06)
(-0.0140034 -0.00450357 2.88391e-06)
(-0.014208 -0.00650668 3.4655e-06)
(-0.0142196 -0.00899442 3.60492e-06)
(-0.0138451 -0.0120804 2.71818e-06)
(-0.0123251 -0.0160001 -6.16438e-06)
(-0.00993346 -0.0195338 -5.55585e-06)
(-0.00440533 -0.0226684 -3.02645e-05)
(-0.0044129 0.028162 -0.000108909)
(-0.0104008 0.0225226 -5.17955e-05)
(-0.0132839 0.0183263 -1.62398e-05)
(-0.0150758 0.0137415 -5.88269e-06)
(-0.0154618 0.0102666 8.52758e-07)
(-0.0154107 0.0075534 2.8612e-06)
(-0.0151522 0.00543572 3.40336e-06)
(-0.0148692 0.00374939 3.37487e-06)
(-0.0146563 0.00235404 3.23833e-06)
(-0.014566 0.00113194 3.22213e-06)
(-0.014629 -1.96611e-05 3.60819e-06)
(-0.0148621 -0.00119276 4.08562e-06)
(-0.0152729 -0.00250506 5.18646e-06)
(-0.0158533 -0.00409829 6.997e-06)
(-0.0165519 -0.0061711 9.68157e-06)
(-0.0172299 -0.00901408 1.31908e-05)
(-0.0178044 -0.0129516 1.81704e-05)
(-0.016676 -0.0189083 4.18731e-06)
(-0.0153911 -0.0246269 2.24905e-05)
(-0.00786991 -0.0336243 -5.13023e-05)
(-0.0111799 0.0302103 -5.85997e-05)
(-0.0201129 0.025318 -4.95804e-05)
(-0.0187651 0.0197314 1.77335e-05)
(-0.0198037 0.0140795 1.33728e-05)
(-0.0187635 0.0100232 1.6792e-05)
(-0.0177977 0.00707565 1.47727e-05)
(-0.0168924 0.00494249 1.21315e-05)
(-0.0161738 0.0033557 9.80116e-06)
(-0.0156869 0.00211868 8.19564e-06)
(-0.0154494 0.00108768 7.34608e-06)
(-0.015467 0.000149623 7.08097e-06)
(-0.0157662 -0.000797569 8.42346e-06)
(-0.0163882 -0.00185621 1.07862e-05)
(-0.0173787 -0.00316442 1.44567e-05)
(-0.0188071 -0.00491415 1.9353e-05)
(-0.0206436 -0.00743756 2.33651e-05)
(-0.023295 -0.0109015 3.11609e-05)
(-0.0235808 -0.0179253 -1.46851e-05)
(-0.0265798 -0.0232251 1.26694e-05)
(-0.0146789 -0.0427653 -0.0001438)
(-0.0208074 0.0692187 -0.000282157)
(-0.0250777 0.0279515 2.25207e-05)
(-0.0218005 0.0208423 8.07961e-05)
(-0.0200086 0.0125911 8.34219e-05)
(-0.0165781 0.00801151 6.97065e-05)
(-0.0140004 0.00534224 5.04117e-05)
(-0.0120109 0.00359786 3.60878e-05)
(-0.0105859 0.00239792 2.6389e-05)
(-0.00963957 0.00152196 2.05212e-05)
(-0.00910794 0.000829358 1.761e-05)
(-0.00895774 0.000223375 1.72018e-05)
(-0.00917869 -0.00038527 1.91594e-05)
(-0.00978851 -0.00108107 2.50595e-05)
(-0.0108297 -0.00201397 3.68584e-05)
(-0.0123757 -0.00344997 5.99093e-05)
(-0.0140638 -0.00608319 9.57293e-05)
(-0.0179018 -0.0106094 0.000191541)
(-0.0158261 -0.0216811 0.000155721)
(-0.0254839 -0.0356319 0.00039848)
(-0.0064755 -0.0870726 -6.31499e-05)
(0.0769996 0.0631588 -0.000322664)
(0.0749266 0.0232211 -0.000280771)
(0.113171 0.014187 2.75052e-05)
(0.122078 0.00777901 7.58998e-05)
(0.12974 0.00428307 7.01984e-05)
(0.134765 0.00256735 6.01354e-05)
(0.137912 0.00162157 4.59707e-05)
(0.139983 0.00105044 3.39999e-05)
(0.141336 0.000676787 2.62952e-05)
(0.142154 0.000408133 2.23017e-05)
(0.142533 0.000192195 2.14632e-05)
(0.142506 -4.32042e-06 2.37691e-05)
(0.142039 -0.000222687 3.03644e-05)
(0.141041 -0.000530528 4.15874e-05)
(0.138985 -0.00104567 6.71234e-05)
(0.136496 -0.00224838 7.62773e-05)
(0.127209 -0.00439914 0.000175681)
(0.126948 -0.0109826 3.0259e-05)
(0.0795047 -0.0186825 -1.38205e-05)
(0.0881236 -0.0590379 -0.000692444)
(-0.000204544 0.000201727 -2.36091e-07)
(-0.000635905 0.000217651 5.92851e-07)
(-0.00107583 0.000207482 7.81977e-07)
(-0.00148552 0.000191437 8.34749e-07)
(-0.00185732 0.000170679 7.96946e-07)
(-0.00218217 0.000145841 7.01713e-07)
(-0.00245245 0.000117606 5.66773e-07)
(-0.00266195 8.66809e-05 4.02482e-07)
(-0.00280592 5.37753e-05 2.16131e-07)
(-0.00288108 1.95965e-05 1.34309e-08)
(-0.00288555 -1.51509e-05 -2.02322e-07)
(-0.00281892 -4.97461e-05 -4.24186e-07)
(-0.00268224 -8.34509e-05 -6.4512e-07)
(-0.00247808 -0.000115491 -8.5657e-07)
(-0.00221065 -0.000145057 -1.04722e-06)
(-0.00188582 -0.000171317 -1.2013e-06)
(-0.0015112 -0.00019345 -1.29478e-06)
(-0.00109606 -0.000210675 -1.28809e-06)
(-0.00064867 -0.000221667 -1.12671e-06)
(-0.000208858 -0.000205854 -2.94105e-07)
(-0.000231022 0.000641187 -1.1016e-06)
(-0.000717026 0.000690398 -2.41608e-07)
(-0.00121153 0.000658022 5.01145e-10)
(-0.00167186 0.000606952 1.20272e-07)
(-0.00208933 0.00054093 1.6399e-07)
(-0.00245381 0.000462022 1.63186e-07)
(-0.00275683 0.000372419 1.33781e-07)
(-0.00299154 0.000274376 8.36854e-08)
(-0.00315275 0.000170141 1.74056e-08)
(-0.00323689 6.19327e-05 -6.26924e-08)
(-0.0032419 -4.80468e-05 -1.54599e-07)
(-0.00316732 -0.000157558 -2.54953e-07)
(-0.00301429 -0.000264293 -3.59026e-07)
(-0.00278559 -0.000365826 -4.60755e-07)
(-0.00248581 -0.000459603 -5.51052e-07)
(-0.0021214 -0.000542984 -6.15941e-07)
(-0.00170079 -0.000613334 -6.32399e-07)
(-0.00123435 -0.000668123 -5.60462e-07)
(-0.00073143 -0.000703094 -3.46954e-07)
(-0.000235886 -0.000654243 5.2871e-07)
(-0.000243012 0.0011237 -1.43735e-06)
(-0.0007542 0.00120822 -5.39907e-07)
(-0.001274 0.00115119 -2.71497e-07)
(-0.00175729 0.00106137 -1.25091e-07)
(-0.00219501 0.000945441 -5.41488e-08)
(-0.00257667 0.000807118 -2.46561e-08)
(-0.00289361 0.000650313 -2.04617e-08)
(-0.00313895 0.000478989 -3.42278e-08)
(-0.00330752 0.00029705 -6.25674e-08)
(-0.00339577 0.000108302 -1.03655e-07)
(-0.00340164 -8.34983e-05 -1.56645e-07)
(-0.0033246 -0.000274554 -2.19096e-07)
(-0.00316566 -0.000460931 -2.8794e-07)
(-0.00292745 -0.00063846 -3.57919e-07)
(-0.0026144 -0.000802711 -4.20475e-07)
(-0.00223292 -0.000949038 -4.61624e-07)
(-0.00179157 -0.00107274 -4.57479e-07)
(-0.00130109 -0.00116926 -3.65767e-07)
(-0.000771327 -0.00123099 -1.30803e-07)
(-0.000248795 -0.00114714 7.88463e-07)
(-0.00026077 0.00163119 -1.72986e-06)
(-0.000809102 0.00175277 -7.72953e-07)
(-0.00136605 0.00166916 -4.78179e-07)
(-0.00188294 0.00153792 -3.08794e-07)
(-0.0023501 0.00136894 -2.17274e-07)
(-0.00275656 0.00116786 -1.66874e-07)
(-0.00309347 0.000940481 -1.40547e-07)
(-0.003354 0.000692587 -1.30902e-07)
(-0.00353309 0.000429756 -1.34989e-07)
(-0.0036273 0.00015734 -1.51797e-07)
(-0.00363459 -0.000119446 -1.80776e-07)
(-0.00355432 -0.000395346 -2.20987e-07)
(-0.00338726 -0.000664888 -2.70055e-07)
(-0.00313572 -0.000922203 -3.23337e-07)
(-0.00280381 -0.00116094 -3.72395e-07)
(-0.00239776 -0.00137429 -4.02594e-07)
(-0.00192619 -0.00155526 -3.88147e-07)
(-0.00140034 -0.0016969 -2.82804e-07)
(-0.000830827 -0.00178783 -2.6463e-08)
(-0.000268105 -0.00166733 9.604e-07)
(-0.000285647 0.00218158 -2.03812e-06)
(-0.000885884 0.00234285 -9.95107e-07)
(-0.00149449 0.00222939 -6.69123e-07)
(-0.00205778 0.00205208 -4.76612e-07)
(-0.00256524 0.00182464 -3.66727e-07)
(-0.00300533 0.00155505 -2.99048e-07)
(-0.0033691 0.00125133 -2.5507e-07)
(-0.00364991 0.000921268 -2.27099e-07)
(-0.00384301 0.00057214 -2.12508e-07)
(-0.00394522 0.00021077 -2.10957e-07)
(-0.00395457 -0.000156323 -2.22845e-07)
(-0.00387028 -0.000522612 -2.4842e-07)
(-0.00369274 -0.000881243 -2.86179e-07)
(-0.0034237 -0.00122472 -3.3204e-07)
(-0.00306667 -0.0015447 -3.77465e-07)
(-0.00262741 -0.00183202 -4.06573e-07)
(-0.00211446 -0.00207693 -3.90455e-07)
(-0.00153963 -0.00226953 -2.76623e-07)
(-0.000914568 -0.00239382 2.00388e-09)
(-0.000295335 -0.00223424 1.08481e-06)
(-0.000318688 0.00279 -2.40975e-06)
(-0.000987664 0.00299424 -1.252e-06)
(-0.0016642 0.00284612 -8.86768e-07)
(-0.00228788 0.00261605 -6.66362e-07)
(-0.00284714 0.00232252 -5.35405e-07)
(-0.00332986 0.00197651 -4.48556e-07)
(-0.00372726 0.00158874 -3.85413e-07)
(-0.0040332 0.00116919 -3.37905e-07)
(-0.0042436 0.00072688 -3.039e-07)
(-0.00435577 0.000269944 -2.8402e-07)
(-0.00436798 -0.000194076 -2.79872e-07)
(-0.00427924 -0.000657703 -2.92907e-07)
(-0.00408937 -0.00111299 -3.22949e-07)
(-0.00379918 -0.00155098 -3.66674e-07)
(-0.00341112 -0.00196133 -4.15459e-07)
(-0.00293 -0.00233221 -4.51713e-07)
(-0.0023639 -0.00265054 -4.42082e-07)
(-0.0017251 -0.00290256 -3.24943e-07)
(-0.00102653 -0.00306641 -2.27163e-08)
(-0.00033183 -0.00286479 1.18595e-06)
(-0.000361411 0.00347415 -2.88687e-06)
(-0.00111892 0.00372521 -1.58176e-06)
(-0.00188208 0.00353542 -1.16588e-06)
(-0.0025816 0.00324313 -9.08356e-07)
(-0.00320478 0.00287301 -7.48847e-07)
(-0.00373911 0.00244003 -6.35795e-07)
(-0.00417643 0.00195825 -5.46743e-07)
(-0.00451177 0.00144015 -4.73469e-07)
(-0.00474226 0.000896433 -4.14598e-07)
(-0.00486617 0.000336238 -3.71966e-07)
(-0.00488222 -0.000232327 -3.48718e-07)
(-0.00478919 -0.000801391 -3.47734e-07)
(-0.00458602 -0.00136239 -3.70908e-07)
(-0.00427204 -0.00190528 -4.16167e-07)
(-0.0038479 -0.0024178 -4.75119e-07)
(-0.00331662 -0.00288512 -5.28204e-07)
(-0.00268507 -0.00329004 -5.36158e-07)
(-0.00196559 -0.00361361 -4.24379e-07)
(-0.00117253 -0.00382618 -1.00046e-07)
(-0.000379583 -0.00357926 1.26697e-06)
(-0.000416063 0.00425534 -3.51906e-06)
(-0.00128616 0.00455732 -2.02814e-06)
(-0.00215792 0.0043156 -1.54492e-06)
(-0.00295056 0.00394773 -1.23451e-06)
(-0.00365024 0.00348668 -1.03232e-06)
(-0.00424462 0.0029529 -8.79463e-07)
(-0.00472714 0.00236464 -7.51696e-07)
(-0.00509502 0.00173718 -6.40981e-07)
(-0.00534751 0.00108276 -5.4696e-07)
(-0.00548453 0.000410971 -4.72948e-07)
(-0.00550561 -0.000270245 -4.23965e-07)
(-0.00540931 -0.000953512 -4.04529e-07)
(-0.00519326 -0.00163048 -4.19718e-07)
(-0.00485459 -0.00229065 -4.69642e-07)
(-0.00439096 -0.00292014 -5.47019e-07)
(-0.00380225 -0.00350088 -6.30544e-07)
(-0.00309273 -0.0040105 -6.73594e-07)
(-0.00227388 -0.004423 -5.83478e-07)
(-0.00136123 -0.00469793 -2.45375e-07)
(-0.000441605 -0.00440268 1.3141e-06)
(-0.00048604 0.00516016 -4.37703e-06)
(-0.00149906 0.00551677 -2.65383e-06)
(-0.00250585 0.00520787 -2.07618e-06)
(-0.00341086 0.00474535 -1.68547e-06)
(-0.00419962 0.00417378 -1.41533e-06)
(-0.00486115 0.00352118 -1.19899e-06)
(-0.00539215 0.0028111 -1.01108e-06)
(-0.00579365 0.00206189 -8.44112e-07)
(-0.00606847 0.00128687 -6.98891e-07)
(-0.00621918 0.000495253 -5.80298e-07)
(-0.0062467 -0.000306363 -4.9529e-07)
(-0.00614943 -0.00111244 -4.5007e-07)
(-0.00592315 -0.00191618 -4.53998e-07)
(-0.0055617 -0.00270777 -5.11299e-07)
(-0.00505813 -0.00347238 -6.1778e-07)
(-0.004407 -0.00418867 -7.51776e-07)
(-0.00360762 -0.00482796 -8.58481e-07)
(-0.00266862 -0.00535451 -8.20415e-07)
(-0.00160569 -0.00571249 -4.89689e-07)
(-0.000522555 -0.00536725 1.2919e-06)
(-0.000576659 0.00622325 -5.57191e-06)
(-0.00177227 0.00663633 -3.55897e-06)
(-0.00294644 0.00623704 -2.83723e-06)
(-0.00398505 0.00565229 -2.3168e-06)
(-0.00487442 0.00494327 -1.9337e-06)
(-0.00560731 0.00414848 -1.61371e-06)
(-0.00618644 0.00329803 -1.33119e-06)
(-0.00661926 0.00241338 -1.07928e-06)
(-0.00691415 0.00150813 -8.59802e-07)
(-0.00707776 0.000589712 -6.78705e-07)
(-0.0071133 -0.000338389 -5.44132e-07)
(-0.00701913 -0.00127437 -4.63662e-07)
(-0.00678859 -0.00221513 -4.50081e-07)
(-0.00641079 -0.00315342 -5.15601e-07)
(-0.00587187 -0.00407485 -6.63848e-07)
(-0.00515783 -0.00495527 -8.77017e-07)
(-0.00425909 -0.00575864 -1.09351e-06)
(-0.00317751 -0.00643607 -1.16353e-06)
(-0.00192627 -0.00690921 -8.8341e-07)
(-0.000629961 -0.00651631 1.12836e-06)
(-0.000696663 0.00749179 -7.29017e-06)
(-0.0021288 0.007958 -4.91263e-06)
(-0.00351034 0.00743228 -3.94538e-06)
(-0.00470509 0.00668469 -3.20429e-06)
(-0.00570344 0.00580101 -2.62786e-06)
(-0.0065064 0.00483379 -2.13663e-06)
(-0.00712725 0.00382095 -1.7046e-06)
(-0.00758356 0.00278664 -1.32584e-06)
(-0.00789215 0.00174321 -1.00218e-06)
(-0.0080657 0.00069405 -7.37686e-07)
(-0.00811079 -0.000363043 -5.38987e-07)
(-0.00802617 -0.0014326 -4.13846e-07)
(-0.0078022 -0.00251809 -3.75547e-07)
(-0.00742142 -0.00361796 -4.45281e-07)
(-0.00685999 -0.00472115 -6.43902e-07)
(-0.0060908 -0.00580216 -9.72573e-07)
(-0.00508907 -0.00681712 -1.37137e-06)
(-0.00384253 -0.00770028 -1.6534e-06)
(-0.00235586 -0.00833951 -1.50388e-06)
(-0.000776672 -0.00791133 6.80584e-07)
(-0.000861316 0.00903361 -9.86546e-06)
(-0.00260619 0.00953651 -7.00515e-06)
(-0.00424411 0.00882749 -5.57287e-06)
(-0.00561687 0.00785636 -4.44449e-06)
(-0.00672534 0.00674643 -3.53097e-06)
(-0.00758738 0.00556794 -2.75491e-06)
(-0.00823361 0.00436763 -2.09005e-06)
(-0.00869701 0.00317064 -1.53011e-06)
(-0.00900674 0.00198492 -1.07001e-06)
(-0.00918402 0.000806513 -7.03244e-07)
(-0.00923995 -0.000375865 -4.27501e-07)
(-0.00917418 -0.00157654 -2.46354e-07)
(-0.00897396 -0.0028093 -1.71559e-07)
(-0.00861386 -0.00408258 -2.3471e-07)
(-0.00805607 -0.00539359 -4.83179e-07)
(-0.00725381 -0.00672035 -9.66674e-07)
(-0.00615801 -0.00801214 -1.65365e-06)
(-0.0047285 -0.00918376 -2.34723e-06)
(-0.00294999 -0.0100702 -2.47682e-06)
(-0.000986289 -0.00964586 -3.16736e-07)
(-0.00109932 0.0109557 -1.39718e-05)
(-0.00326833 0.0114431 -1.03253e-05)
(-0.00521944 0.0104605 -7.94877e-06)
(-0.00678681 0.00917394 -6.13682e-06)
(-0.0079919 0.0077664 -4.6278e-06)
(-0.00888522 0.00632874 -3.38666e-06)
(-0.00952456 0.00491504 -2.38068e-06)
(-0.00996628 0.00354621 -1.58551e-06)
(-0.0102563 0.00222084 -9.65187e-07)
(-0.0104265 0.000923211 -4.85629e-07)
(-0.0104938 -0.000371091 -1.24904e-07)
(-0.0104596 -0.0016905 1.34002e-07)
(-0.0103082 -0.00306383 2.72028e-07)
(-0.0100057 -0.00451531 2.42058e-07)
(-0.00949776 -0.00605764 -4.40487e-08)
(-0.00870937 -0.00768137 -7.03004e-07)
(-0.00755345 -0.00933773 -1.81485e-06)
(-0.00593593 -0.0109235 -3.3178e-06)
(-0.00380805 -0.0121854 -4.03676e-06)
(-0.00130752 -0.0118726 -2.38112e-06)
(-0.00147227 0.0134094 -2.07094e-05)
(-0.00423273 0.013762 -1.55699e-05)
(-0.00654756 0.0123678 -1.12884e-05)
(-0.00831176 0.0106266 -8.30352e-06)
(-0.0095706 0.00882639 -5.74999e-06)
(-0.0104388 0.00707476 -3.80516e-06)
(-0.0110162 0.00542414 -2.35692e-06)
(-0.0113912 0.00388227 -1.29914e-06)
(-0.0116298 0.00243101 -5.25562e-07)
(-0.011776 0.00103703 5.73704e-08)
(-0.0118537 -0.000341861 5.23465e-07)
(-0.0118669 -0.00175274 8.99429e-07)
(-0.0117988 -0.00324473 1.16492e-06)
(-0.0116077 -0.00486524 1.24611e-06)
(-0.0112221 -0.0066531 9.89413e-07)
(-0.0105339 -0.00862561 1.56855e-07)
(-0.00940133 -0.0107547 -1.49461e-06)
(-0.00762075 -0.0129477 -4.55815e-06)
(-0.00511651 -0.0147898 -6.10945e-06)
(-0.00184732 -0.0148455 -6.93001e-06)
(-0.00209104 0.0168458 -3.48354e-05)
(-0.00569419 0.0166379 -2.47486e-05)
(-0.00839516 0.0145824 -1.57584e-05)
(-0.0103294 0.0121684 -1.06688e-05)
(-0.0115438 0.00985757 -6.36354e-06)
(-0.0122875 0.00773435 -3.49151e-06)
(-0.0127171 0.00583274 -1.5758e-06)
(-0.0129594 0.00413186 -3.20451e-07)
(-0.0131015 0.00258563 5.33831e-07)
(-0.0131994 0.00113616 1.19071e-06)
(-0.0132836 -0.000281005 1.75996e-06)
(-0.0133625 -0.00173546 2.28937e-06)
(-0.0134208 -0.00330132 2.79677e-06)
(-0.0134141 -0.00505702 3.1889e-06)
(-0.0132581 -0.00708153 3.22361e-06)
(-0.012811 -0.00944163 2.4441e-06)
(-0.0118766 -0.0121601 2.47692e-07)
(-0.0100293 -0.0152362 -5.96543e-06)
(-0.00722599 -0.0179813 -8.29307e-06)
(-0.00283068 -0.0190879 -1.68323e-05)
(-0.00336355 0.0205331 -4.52813e-05)
(-0.00823173 0.0198471 -3.56426e-05)
(-0.0110625 0.0169902 -1.88684e-05)
(-0.0130386 0.0136698 -1.17009e-05)
(-0.0140046 0.0107263 -5.0134e-06)
(-0.0144636 0.00818984 -1.27771e-06)
(-0.0146186 0.00604873 8.42368e-07)
(-0.0146382 0.00422967 2.02266e-06)
(-0.0146253 0.00264498 2.73981e-06)
(-0.0146425 0.00120399 3.30506e-06)
(-0.0147251 -0.000182173 3.93252e-06)
(-0.0148871 -0.00160701 4.67954e-06)
(-0.0151202 -0.00316913 5.66689e-06)
(-0.0153877 -0.0049845 6.81106e-06)
(-0.0156065 -0.00718677 7.79484e-06)
(-0.0156124 -0.00991979 7.91865e-06)
(-0.0151957 -0.0133071 6.16874e-06)
(-0.013524 -0.0176123 -6.08279e-06)
(-0.0109042 -0.0214872 -7.57211e-06)
(-0.00484236 -0.0248963 -3.97612e-05)
(-0.00481416 0.0307647 -0.0001416)
(-0.0114075 0.0247027 -7.25168e-05)
(-0.0146225 0.0201075 -2.61359e-05)
(-0.0165994 0.0150679 -9.56698e-06)
(-0.0170217 0.011251 1.2013e-06)
(-0.0169616 0.00826956 5.239e-06)
(-0.0166726 0.00594313 6.66299e-06)
(-0.0163578 0.00409081 6.93813e-06)
(-0.0161211 0.00255798 6.91907e-06)
(-0.0160199 0.00121488 7.06771e-06)
(-0.0160874 -5.17978e-05 7.8246e-06)
(-0.0163415 -0.0013427 8.87103e-06)
(-0.0167896 -0.00278749 1.08708e-05)
(-0.017422 -0.00454122 1.38592e-05)
(-0.0181817 -0.00682089 1.78057e-05)
(-0.0189165 -0.00994418 2.22533e-05)
(-0.0195411 -0.0142621 2.737e-05)
(-0.0183036 -0.0208032 7.98774e-06)
(-0.0169251 -0.0270679 2.64817e-05)
(-0.00867752 -0.0369327 -6.53886e-05)
(-0.0121751 0.0327189 -9.00517e-05)
(-0.022045 0.0278121 -7.29314e-05)
(-0.0206343 0.0216747 1.18035e-05)
(-0.021799 0.0154678 1.34236e-05)
(-0.0206473 0.0110033 2.14754e-05)
(-0.0195804 0.00775749 2.1198e-05)
(-0.018578 0.00541033 1.88754e-05)
(-0.0177827 0.00366547 1.62871e-05)
(-0.0172439 0.00230572 1.43758e-05)
(-0.0169807 0.00117228 1.34512e-05)
(-0.0169978 0.000140321 1.3481e-05)
(-0.017324 -0.000902201 1.57489e-05)
(-0.0180033 -0.00206752 1.962e-05)
(-0.0190837 -0.00350669 2.52398e-05)
(-0.0206402 -0.00542813 3.21017e-05)
(-0.0226351 -0.00819575 3.69134e-05)
(-0.0255274 -0.011977 4.43303e-05)
(-0.0258177 -0.0196975 -1.46207e-05)
(-0.0291086 -0.0255158 1.03647e-05)
(-0.0159453 -0.0473469 -0.000179373)
(-0.0235654 0.0750424 -0.000346309)
(-0.0277009 0.0304525 6.6051e-07)
(-0.0242022 0.0228648 7.98795e-05)
(-0.0220747 0.0138216 9.27303e-05)
(-0.0182048 0.00879793 8.32521e-05)
(-0.015304 0.00586553 6.4035e-05)
(-0.0130689 0.00394546 4.84248e-05)
(-0.0114706 0.00262462 3.72262e-05)
(-0.0104086 0.00166091 3.02414e-05)
(-0.00980808 0.000899087 2.68629e-05)
(-0.00962904 0.000232597 2.67931e-05)
(-0.00985697 -0.000437182 3.00441e-05)
(-0.0105072 -0.00120201 3.84921e-05)
(-0.0116196 -0.00222634 5.43551e-05)
(-0.0132683 -0.00379711 8.34789e-05)
(-0.0150179 -0.00668666 0.000126396)
(-0.0191205 -0.011624 0.0002366)