/*--------------------------------*- C++ -*----------------------------------*\
  =========                 |
  \\      /  F ield         | OpenFOAM: The Open Source CFD Toolbox
   \\    /   O peration     | Website:  https://openfoam.org
    \\  /    A nd           | Version:  9
     \\/     M anipulation  |
\*---------------------------------------------------------------------------*/
FoamFile
{
    format      ascii;
    class       volScalarField;
    location    "6";
    object      p;
}
// * * * * * * * * * * * * * * * * * * * * * * * * * * * * * * * * * * * * * //

dimensions      [0 2 -2 0 0 0 0];

internalField   nonuniform List<scalar> 
8000
(
-6.82847e-07
1.7742e-06
3.49414e-05
8.94276e-05
0.00016959
0.000276254
0.000410584
0.000573472
0.000765406
0.000985909
0.0012332
0.00150369
0.00179136
0.00208801
0.00238151
0.0026573
0.00289895
0.00308746
0.00321537
0.00325061
-2.73258e-06
-1.35797e-06
3.14116e-05
8.45473e-05
0.000162871
0.000267276
0.000399108
0.000559518
0.000749183
0.000967953
0.0012144
0.0014851
0.00177445
0.00207473
0.00237395
0.00265713
0.00290702
0.00310323
0.00323795
0.00327489
-4.14124e-05
-4.17743e-05
-1.04401e-05
4.05515e-05
0.000116423
0.000218196
0.000347541
0.000506047
0.000694922
0.000914647
0.00116451
0.0014422
0.00174292
0.00205877
0.00237782
0.00268412
0.00295848
0.00317689
0.00332892
0.00337133
-0.00010602
-0.000107981
-7.87229e-05
-3.09553e-05
4.10873e-05
0.000138669
0.000263965
0.000419238
0.000606557
0.00082745
0.00108242
0.00137018
0.00168646
0.00202703
0.00237782
0.00272221
0.00303801
0.00329478
0.00347703
0.00353137
-0.000199322
-0.000203315
-0.000176933
-0.000133586
-6.68621e-05
2.48056e-05
0.000144232
0.000294547
0.00047897
0.000700497
0.000961407
0.00126266
0.00160327
0.00197439
0.00236901
0.00276798
0.0031452
0.00346192
0.00369242
0.00376868
-0.000320628
-0.000327187
-0.000304623
-0.000267187
-0.000207741
-0.000124405
-1.36451e-05
0.000128666
0.000307127
0.000526578
0.000791612
0.00110578
0.00147032
0.0018822
0.00233397
0.00280686
0.00327089
0.00367718
0.0039823
0.00409865
-0.00046907
-0.000478818
-0.000461182
-0.000431486
-0.000381819
-0.000310048
-0.000211918
-8.22549e-05
8.50666e-05
0.000297034
0.000561161
0.000884726
0.00127333
0.0017283
0.00224797
0.00281506
0.00339682
0.00393375
0.00435399
0.00454484
-0.000643503
-0.000657131
-0.000645651
-0.000625811
-0.000588928
-0.000532767
-0.000452467
-0.000341896
-0.000193414
2.25831e-06
0.000255973
0.000579765
0.000985711
0.00148405
0.00207407
0.00275298
0.00348755
0.00421101
0.0048075
0.00514141
-0.000842439
-0.000860655
-0.000856563
-0.000848849
-0.000828106
-0.000792275
-0.000736161
-0.000652965
-0.000533805
-0.000367308
-0.0001393
0.0001673
0.000571993
0.00109438
0.0017496
0.00255169
0.0034744
0.00445708
0.00531195
0.00594538
-0.00106411
-0.00108759
-0.00109191
-0.00109849
-0.00109729
-0.00108684
-0.00106208
-0.00101607
-0.000939319
-0.000818994
-0.000638137
-0.000374729
-7.86173e-07
0.000518009
0.00121947
0.00212054
0.00324481
0.00456104
0.00578668
0.00700158
-0.00130672
-0.00133601
-0.00134916
-0.00137173
-0.00139302
-0.0014128
-0.0014267
-0.00142848
-0.00140911
-0.00135578
-0.00125053
-0.00106871
-0.000776774
-0.000329492
0.000332041
0.00127764
0.00255844
0.0042604
0.00597862
0.0082272
-0.00156886
-0.00160422
-0.00162528
-0.00166444
-0.00171006
-0.00176398
-0.00182314
-0.00188283
-0.0019359
-0.00197151
-0.00197362
-0.00191878
-0.00177254
-0.00148395
-0.000977688
-0.000145735
0.00117124
0.00317348
0.00536638
0.00920636
-0.00185151
-0.00189642
-0.00192394
-0.00198202
-0.00205068
-0.00213807
-0.00224422
-0.00236822
-0.00250666
-0.00265298
-0.00279663
-0.00292178
-0.00300394
-0.00300317
-0.00285592
-0.00244982
-0.00160018
0.000317361
0.00251055
0.00871499
-0.00214833
-0.00217836
-0.0022026
-0.00226102
-0.00235182
-0.00248084
-0.00264728
-0.00284968
-0.00308691
-0.00335864
-0.00366533
-0.00400669
-0.0043813
-0.0047784
-0.00519359
-0.0055275
-0.005744
-0.00441388
-0.00273035
0.00648156
-0.00249596
-0.00258828
-0.00260018
-0.00270889
-0.00280253
-0.00294924
-0.00314044
-0.00338884
-0.00370276
-0.00409159
-0.00456787
-0.00515138
-0.00587604
-0.00677409
-0.00795439
-0.00929594
-0.0111921
-0.0109746
-0.00999951
0.00132106
-0.00293995
-0.00282034
-0.00279497
-0.00278989
-0.00288809
-0.00307276
-0.00334166
-0.00369122
-0.00412589
-0.00465584
-0.00530573
-0.0061066
-0.00715812
-0.00844953
-0.0104535
-0.0126664
-0.0168863
-0.0187327
-0.0194954
-0.00663325
-0.00313324
-0.00355141
-0.00342093
-0.00365388
-0.00367093
-0.00383369
-0.00403538
-0.00434645
-0.00477079
-0.00533164
-0.00605678
-0.00698373
-0.00830204
-0.00980707
-0.0127962
-0.0155221
-0.0226588
-0.027815
-0.0299304
-0.0103672
-0.00499303
-0.00355576
-0.00343709
-0.00308201
-0.00312582
-0.00332334
-0.00367171
-0.0041314
-0.00471014
-0.00539678
-0.00626596
-0.00723357
-0.00874645
-0.010357
-0.01336
-0.0166663
-0.0240306
-0.0290194
-0.0304392
0.00163401
-0.00348891
-0.00575212
-0.00484199
-0.00523336
-0.00485026
-0.00488742
-0.00490182
-0.0051501
-0.00552947
-0.00608113
-0.00682587
-0.00770899
-0.00913915
-0.0104815
-0.0136448
-0.0164854
-0.0230145
-0.0243033
-0.0168352
0.0330903
-0.0164719
-0.00390742
-0.00334061
-0.00289826
-0.00280599
-0.00301134
-0.00343791
-0.00393566
-0.00461742
-0.00527744
-0.00629577
-0.00719396
-0.00875295
-0.0100322
-0.0122946
-0.0130444
-0.012637
7.75225e-05
0.0299169
0.109707
2.51716e-06
4.27002e-07
3.31099e-05
8.72456e-05
0.000167497
0.000274448
0.000409225
0.000572839
0.000765678
0.000987328
0.00123605
0.00150824
0.00179807
0.00209695
0.00239301
0.00267143
0.00291539
0.00310498
0.00323313
0.00326221
4.36825e-06
1.72555e-06
3.4351e-05
8.70117e-05
0.000165132
0.000269411
0.000401178
0.000561622
0.000751454
0.000970579
0.00121764
0.00148926
0.00177996
0.00208184
0.00238297
0.00266825
0.00292007
0.00311713
0.00325222
0.00328282
-3.33386e-05
-3.80092e-05
-6.7592e-06
4.37268e-05
0.000119353
0.000220945
0.000350164
0.000508642
0.000697638
0.000917704
0.00116819
0.00144687
0.00174907
0.00206682
0.0023882
0.00269715
0.00297407
0.00319381
0.00334652
0.0033818
-9.67939e-05
-0.000103281
-7.40622e-05
-2.6823e-05
4.49484e-05
0.000142311
0.000267438
0.000422637
0.000610038
0.000831261
0.00108691
0.00137588
0.0016946
0.00203691
0.00239066
0.00273863
0.00305795
0.00331688
0.00350043
0.00354701
-0.000189211
-0.000197974
-0.000171585
-0.00012876
-6.2289e-05
2.91851e-05
0.000148482
0.000298783
0.000483378
0.00070536
0.000967114
0.0012696
0.00161126
0.00198689
0.00238597
0.00279015
0.00317288
0.0034935
0.00372659
0.00379489
-0.000309612
-0.00032123
-0.0002986
-0.000261664
-0.00020243
-0.000119233
-8.52538e-06
0.000133882
0.000312673
0.000532808
0.000799041
0.00111511
0.00148244
0.00189927
0.00235722
0.00283797
0.00331102
0.00372495
0.00403538
0.00414542
-0.000456995
-0.000472145
-0.000454372
-0.000425152
-0.000375655
-0.000303966
-0.000205801
-7.59123e-05
9.19353e-05
0.000304889
0.000570701
0.000896987
0.0012902
0.00175155
0.0022801
0.00285947
0.0034565
0.00400916
0.00444073
0.00463517
-0.000630156
-0.000649593
-0.000637899
-0.000618521
-0.000581778
-0.000525653
-0.000445243
-0.000334322
-0.00018511
1.18853e-05
0.000267853
0.000595326
0.00100683
0.00151193
0.00211738
0.00281604
0.00357704
0.00433258
0.0049561
0.0053259
-0.000827546
-0.000852057
-0.000847672
-0.000840424
-0.000819822
-0.000784016
-0.000727752
-0.000644118
-0.000524062
-0.000355947
-0.00012518
0.000185958
0.000597648
0.00113002
0.00180931
0.00264119
0.00360907
0.00465444
0.00557011
0.00634539
-0.00104731
-0.00107766
-0.00108161
-0.0010887
-0.00108769
-0.00107732
-0.00105245
-0.00100599
-0.000928241
-0.000806057
-0.000621918
-0.000352793
3.13195e-05
0.000568937
0.00128945
0.00223851
0.00343731
0.00486957
0.00623172
0.0078946
-0.00128744
-0.00132437
-0.00133712
-0.00136031
-0.00138191
-0.0014019
-0.00141584
-0.00141729
-0.00139702
-0.00134181
-0.00123309
-0.00104514
-0.000742415
-0.0002765
0.000414559
0.00140855
0.00280925
0.00471454
0.00665846
0.0100286
-0.00154607
-0.00158966
-0.00161026
-0.00165008
-0.00169646
-0.00175111
-0.00181076
-0.00187053
-0.001923
-0.00195694
-0.00195563
-0.00189441
-0.00173687
-0.00142773
-0.000884123
-3.05784e-06
0.00139544
0.00364631
0.00594786
0.0117857
-0.0018241
-0.00188084
-0.00190814
-0.0019679
-0.00203727
-0.00212519
-0.00223166
-0.00235583
-0.00249412
-0.00263957
-0.00278117
-0.00290233
-0.00297795
-0.00296862
-0.00281523
-0.00245056
-0.00170027
0.000189441
0.0006988
0.00924945
-0.00211007
-0.00214967
-0.00217423
-0.00223309
-0.00232653
-0.00245811
-0.00262738
-0.00283227
-0.00307143
-0.00334419
-0.00365067
-0.00399072
-0.00436519
-0.00477555
-0.00524557
-0.00583721
-0.00664049
-0.00578938
-0.00815024
0.00274407
-0.00244248
-0.00256132
-0.00257346
-0.00268845
-0.00278525
-0.00293475
-0.00312801
-0.0033785
-0.00369429
-0.00408503
-0.00456312
-0.00515037
-0.00588611
-0.00683402
-0.0081516
-0.00995202
-0.0130251
-0.0138362
-0.0171113
-0.00596546
-0.00285757
-0.00276389
-0.00273893
-0.00272991
-0.00283561
-0.00302646
-0.00330353
-0.00366041
-0.00410171
-0.00463669
-0.00529005
-0.00609732
-0.00714999
-0.00851962
-0.0106494
-0.0134394
-0.0189431
-0.021967
-0.0273208
-0.0145676
-0.00288506
-0.00340494
-0.00333441
-0.00359948
-0.00363301
-0.00380713
-0.00401813
-0.00433998
-0.00476882
-0.0053341
-0.00605868
-0.00698976
-0.008282
-0.00987159
-0.0128277
-0.0162319
-0.0240441
-0.0305719
-0.0377473
-0.0159827
-0.00481636
-0.00349444
-0.00332941
-0.00290544
-0.00297114
-0.00320048
-0.00358235
-0.00406996
-0.00467136
-0.00537051
-0.00623643
-0.00722906
-0.00864386
-0.0102608
-0.0131383
-0.0168187
-0.0239092
-0.029668
-0.0333247
0.000843418
-0.00191293
-0.00497532
-0.00439303
-0.00497363
-0.00467274
-0.00481005
-0.00487909
-0.00518696
-0.00558762
-0.00614744
-0.00690365
-0.00773252
-0.00905262
-0.0104226
-0.0131581
-0.0166696
-0.0229067
-0.0247272
-0.0176783
0.0365328
-0.0157442
-0.00316658
-0.00255124
-0.00233835
-0.00242766
-0.00271689
-0.0032192
-0.00375321
-0.00450128
-0.0051699
-0.00618143
-0.00714273
-0.00845877
-0.0100102
-0.0117974
-0.0129672
-0.0124066
0.00150172
0.0372567
0.127549
6.11184e-06
2.66009e-06
3.51322e-05
8.90726e-05
0.000169366
0.000276524
0.000411672
0.000575799
0.000769396
0.000992091
0.0012422
0.00151618
0.00180817
0.00210952
0.00240831
0.00268952
0.00293599
0.00312726
0.00325639
0.00328365
9.46935e-06
5.40709e-06
3.78983e-05
9.03039e-05
0.000168359
0.000272691
0.000404643
0.000565436
0.000755834
0.000975799
0.00122405
0.00149724
0.00178996
0.00209421
0.00239805
0.00268617
0.00294065
0.00313961
0.00327594
0.00330486
-2.75917e-05
-3.37642e-05
-2.62037e-06
4.75823e-05
0.000123118
0.000224734
0.000354116
0.000512936
0.000702516
0.000923479
0.00117525
0.00145571
0.00176024
0.00208082
0.00240552
0.00271807
0.00299852
0.00322097
0.00337557
0.00340917
-9.01911e-05
-9.82573e-05
-6.91248e-05
-2.21861e-05
4.94719e-05
0.000146835
0.000272111
0.000427663
0.000615693
0.000837914
0.00109504
0.00138611
0.00170774
0.00205358
0.0024117
0.00276462
0.00308898
0.00335208
0.00353874
0.00358407
-0.000181766
-0.000192214
-0.00016589
-0.000123372
-5.70107e-05
3.44735e-05
0.000153947
0.00030466
0.000489996
0.000713167
0.000976702
0.0012817
0.00162682
0.00200739
0.00241254
0.00282386
0.00321429
0.00354178
0.00378027
0.00384869
-0.000301212
-0.000314649
-0.000292061
-0.000255436
-0.000196301
-0.000113072
-2.14459e-06
0.000140756
0.000320433
0.000542005
0.000810429
0.00112969
0.00150154
0.00192493
0.00239134
0.00288254
0.00336757
0.00379319
0.00411318
0.00422719
-0.000447441
-0.000464576
-0.00044682
-0.000417925
-0.000368527
-0.000296794
-0.000198376
-6.79189e-05
0.000100959
0.000315617
0.000584085
0.000914263
0.00131213
0.00178335
0.0023237
0.00291837
0.00353408
0.00410697
0.00455564
0.00476335
-0.000619169
-0.000640792
-0.000629098
-0.000610078
-0.000573461
-0.000517316
-0.000436656
-0.000325135
-0.000174792
2.41368e-05
0.00028326
0.000615803
0.00103594
0.00155048
0.00217164
0.00289241
0.0036822
0.00447214
0.00512677
0.00553253
-0.000814736
-0.00084167
-0.000837285
-0.000830463
-0.000810067
-0.000774328
-0.000717896
-0.000633723
-0.000512555
-0.000342438
-0.000108289
0.000208385
0.000628962
0.00117555
0.00187382
0.00273601
0.00374649
0.00484781
0.0058176
0.0066831
-0.00103211
-0.00106516
-0.00106914
-0.00107678
-0.00107614
-0.00106603
-0.00104119
-0.00099441
-0.00091577
-0.000791798
-0.000604454
-0.000329889
6.30023e-05
0.000613116
0.00135585
0.00234522
0.0036035
0.00512253
0.00657512
0.00843987
-0.00126904
-0.00130899
-0.00132186
-0.00134582
-0.00136806
-0.00138862
-0.00140297
-0.00140453
-0.00138389
-0.00132753
-0.00121643
-0.00102412
-0.000714062
-0.000237932
0.000456605
0.00150711
0.00298153
0.00500844
0.00708386
0.0108001
-0.00152311
-0.00156996
-0.00159078
-0.00163167
-0.00167918
-0.00173501
-0.00179575
-0.00185636
-0.00190932
-0.00194322
-0.00194102
-0.00187742
-0.00171465
-0.00139302
-0.000813321
7.40223e-05
0.00151955
0.00389053
0.0062339
0.0125278
-0.00179481
-0.00185595
-0.00188384
-0.00194553
-0.00201661
-0.00210632
-0.00221449
-0.0023403
-0.00248019
-0.00262731
-0.00277061
-0.00289347
-0.00297096
-0.00296383
-0.00281543
-0.00248305
-0.00178789
0.000183201
0.000621672
0.009425
-0.00207018
-0.00211474
-0.00214019
-0.00220082
-0.00229672
-0.00243107
-0.00260352
-0.00281181
-0.00305462
-0.0033314
-0.00364249
-0.00398828
-0.00437101
-0.00479685
-0.00529983
-0.00597934
-0.00695699
-0.00622795
-0.00844334
0.00164246
-0.0023852
-0.00251048
-0.00252534
-0.00264515
-0.0027471
-0.00290179
-0.0031
-0.00335564
-0.00367699
-0.004074
-0.00455954
-0.00515671
-0.00590732
-0.00688556
-0.00827156
-0.0102615
-0.0137615
-0.0151925
-0.0178735
-0.00804239
-0.002784
-0.0027017
-0.00267811
-0.00267037
-0.00277969
-0.00297548
-0.00325919
-0.00362323
-0.00407252
-0.00461608
-0.0052787
-0.00609664
-0.00715901
-0.00855988
-0.0107483
-0.0137655
-0.0196564
-0.0234135
-0.0278803
-0.0163807
-0.00272623
-0.00326119
-0.00321833
-0.00349535
-0.00354448
-0.00373046
-0.003953
-0.00428611
-0.0047293
-0.00530885
-0.00604381
-0.00698414
-0.00827088
-0.00988833
-0.0128034
-0.0163954
-0.0240975
-0.0305699
-0.0358833
-0.0159563
-0.00471975
-0.0034133
-0.00323074
-0.00278379
-0.00284818
-0.00308813
-0.00348604
-0.00399126
-0.00460888
-0.00532511
-0.00619804
-0.00720889
-0.00857179
-0.0102027
-0.0129001
-0.0166111
-0.0230505
-0.0279114
-0.0294299
0.00244088
-0.0014467
-0.00456716
-0.004087
-0.00469776
-0.00442254
-0.00459067
-0.00468239
-0.00503629
-0.00547195
-0.00606617
-0.00685181
-0.00768993
-0.00897094
-0.0103734
-0.0129155
-0.0165556
-0.0223711
-0.0231925
-0.0146649
0.0385402
-0.0156017
-0.00292211
-0.00226816
-0.00207563
-0.00219012
-0.00250319
-0.00303023
-0.00360044
-0.00436713
-0.00508201
-0.00606924
-0.00711892
-0.00831539
-0.00994047
-0.0115448
-0.0126756
-0.0118093
0.00332873
0.0417733
0.133226
9.90214e-06
5.66399e-06
3.79807e-05
9.17803e-05
0.000172153
0.00027957
0.000415172
0.000579986
0.000774549
0.000998536
0.00125031
0.00152639
0.00182087
0.00212508
0.002427
0.0027114
0.0029608
0.00315426
0.00328482
0.00331151
1.41704e-05
9.3748e-06
4.17517e-05
9.39939e-05
0.00017207
0.000276575
0.000408878
0.000570244
0.000761487
0.000982636
0.00123247
0.00150771
0.00180296
0.00211018
0.00241734
0.00270893
0.00296668
0.00316814
0.00330621
0.00333461
-2.23194e-05
-2.92647e-05
1.77883e-06
5.18137e-05
0.000127362
0.000229141
0.000358871
0.000518275
0.000708743
0.000930978
0.0011845
0.00146725
0.00177472
0.00209883
0.0024276
0.00274453
0.00302929
0.00325522
0.00341237
0.00344574
-8.41463e-05
-9.30197e-05
-6.39761e-05
-1.72139e-05
5.44518e-05
0.000151976
0.000277609
0.000433779
0.000622776
0.000846418
0.00110555
0.00139934
0.00172457
0.00207488
0.00243837
0.00279731
0.0031278
0.00339622
0.00358696
0.00363282
-0.000174909
-0.000186203
-0.000159959
-0.000117623
-5.12494e-05
4.04107e-05
0.000160279
0.000311688
0.000498131
0.000722967
0.000988897
0.00129723
0.00164686
0.00203336
0.00244586
0.00286579
0.00326553
0.00360164
0.00384706
0.00391783
-0.000293416
-0.000307746
-0.000285231
-0.000248796
-0.000189646
-0.000106225
5.14194e-06
0.00014883
0.000329783
0.000553312
0.000824624
0.00114801
0.00152562
0.00195692
0.00243351
0.00293722
0.00343659
0.00387659
0.00420874
0.00432939
-0.000438505
-0.000456589
-0.000438906
-0.000410222
-0.00036082
-0.000288899
-0.00019002
-5.87067e-05
0.000111601
0.000328513
0.000600407
0.000935657
0.00134092
0.0018224
0.00237668
0.00298947
0.00362729
0.00422455
0.00469491
0.00491954
-0.000608806
-0.000631446
-0.000619836
-0.000601073
-0.000564499
-0.000508212
-0.000427124
-0.000314745
-0.000162899
3.8492e-05
0.000301504
0.000640015
0.001069
0.00159662
0.00223637
0.0029828
0.00380618
0.00463685
0.00533069
0.00577738
-0.00080254
-0.000830577
-0.000826306
-0.000819828
-0.000799572
-0.000763809
-0.000707075
-0.000622166
-0.000499582
-0.000327009
-8.88009e-05
0.000234385
0.000665174
0.00122758
0.00194901
0.00284588
0.00390579
0.00507322
0.00611442
0.00707583
-0.0010175
-0.00105177
-0.00105592
-0.00106404
-0.00106371
-0.0010538
-0.00102892
-0.000981708
-0.000901995
-0.000775934
-0.000584894
-0.000304083
9.90639e-05
0.000665472
0.00143427
0.00246733
0.00379346
0.00541362
0.00699161
0.00906655
-0.00125116
-0.00129247
-0.00130563
-0.0013303
-0.00135312
-0.00137423
-0.00138897
-0.00139065
-0.00136963
-0.00131209
-0.00119849
-0.00100159
-0.000683542
-0.000194475
0.000515875
0.00161596
0.00316954
0.00533004
0.00760597
0.0117012
-0.0015006
-0.001549
-0.00157028
-0.00161216
-0.00166068
-0.00171761
-0.00177943
-0.00184101
-0.00189469
-0.00192889
-0.00192632
-0.00186137
-0.00169555
-0.00136719
-0.000768803
0.000129216
0.0016215
0.00409625
0.00662721
0.0134657
-0.00176586
-0.00182943
-0.00185819
-0.0019217
-0.00199435
-0.00208573
-0.00219563
-0.00232332
-0.00246532
-0.00261489
-0.0027613
-0.00288869
-0.00297362
-0.00298029
-0.00285922
-0.00258546
-0.00196995
-9.57463e-05
0.000387348
0.00953056
-0.00203112
-0.00207843
-0.00210499
-0.0021674
-0.0022654
-0.00240234
-0.00257792
-0.00278987
-0.00303699
-0.00331902
-0.00363722
-0.00399428
-0.00439736
-0.00486279
-0.00545218
-0.00631358
-0.00761557
-0.00740307
-0.00960361
0.000273824
-0.00233057
-0.00246123
-0.00247857
-0.00260338
-0.00270929
-0.00286853
-0.00307127
-0.0033319
-0.00365899
-0.00406337
-0.00455958
-0.00517479
-0.00595938
-0.00700478
-0.00853507
-0.0108249
-0.0149378
-0.017415
-0.0200589
-0.0105476
-0.00271173
-0.00263681
-0.00261538
-0.00261038
-0.00272263
-0.00292293
-0.00321265
-0.00358393
-0.00404176
-0.00459548
-0.00527154
-0.00610947
-0.00720798
-0.00867737
-0.0110191
-0.0143555
-0.0209487
-0.0256527
-0.0306012
-0.0186374
-0.00259704
-0.00315483
-0.00312004
-0.00341115
-0.00346975
-0.00366638
-0.00389855
-0.00424265
-0.00469493
-0.00528475
-0.00603134
-0.00698607
-0.00829851
-0.00996098
-0.0129725
-0.0167607
-0.0249006
-0.0316253
-0.0375308
-0.0162697
-0.00457859
-0.00330215
-0.00311852
-0.00267232
-0.00273731
-0.00298485
-0.00339352
-0.00391218
-0.00454422
-0.00527529
-0.00616083
-0.00718505
-0.00854648
-0.0102057
-0.0128847
-0.016635
-0.0230541
-0.0276781
-0.0291744
0.00412375
-0.00114259
-0.00437588
-0.00390117
-0.00454012
-0.00427069
-0.00445917
-0.00456684
-0.00494432
-0.00538908
-0.00599588
-0.00680629
-0.00763392
-0.00893807
-0.0103369
-0.0128456
-0.0165145
-0.0222701
-0.0225281
-0.0141445
0.041107
-0.0153562
-0.00266397
-0.00199543
-0.0018156
-0.00195875
-0.0023016
-0.00285534
-0.0034543
-0.00424252
-0.00498361
-0.00598524
-0.00706864
-0.00825319
-0.00988338
-0.0114827
-0.0124755
-0.0115765
0.004502
0.0435428
0.137705
1.36564e-05
9.18024e-06
4.14704e-05
9.52657e-05
0.000175785
0.000283504
0.0004196
0.000585138
0.000780706
0.00100604
0.00125955
0.00153779
0.00183485
0.00214203
0.00244719
0.00273491
0.00298743
0.00318337
0.00331568
0.00334262
1.83245e-05
1.3264e-05
4.56227e-05
9.78508e-05
0.000176059
0.000280846
0.000413618
0.000575686
0.000767923
0.000990419
0.00124201
0.00151947
0.00181745
0.00212783
0.00243851
0.00273377
0.00299502
0.00319935
0.00333948
0.00336831
-1.77543e-05
-2.49798e-05
6.05076e-06
5.60688e-05
0.000131748
0.000233814
0.000364028
0.000524172
0.000715703
0.000939404
0.00119488
0.00148016
0.00179077
0.00211865
0.00245171
0.00277325
0.00306258
0.0032924
0.00345245
0.00348662
-7.89828e-05
-8.81501e-05
-5.91154e-05
-1.23737e-05
5.94251e-05
0.000157243
0.000283386
0.000440351
0.000630517
0.00085581
0.00111719
0.00141398
0.00174305
0.00209811
0.00246721
0.00283241
0.00316931
0.00344347
0.00363867
0.00368614
-0.000169045
-0.000180651
-0.000154413
-0.000112101
-4.55903e-05
4.63799e-05
0.000166798
0.000319082
0.000506843
0.000733584
0.00100218
0.00131415
0.00166861
0.00206128
0.00248136
0.00291008
0.00331928
0.00366431
0.00391694
0.00399101
-0.000286705
-0.00030137
-0.000278862
-0.000242463
-0.000183176
-9.94345e-05
1.25174e-05
0.000157162
0.000339592
0.000565312
0.000839782
0.00116759
0.00155129
0.00199066
0.00247753
0.00299372
0.00350723
0.00396145
0.00430557
0.0044331
-0.000430746
-0.000449195
-0.00043153
-0.000402906
-0.000353389
-0.000281162
-0.000181691
-4.93732e-05
0.000122536
0.0003419
0.000617447
0.000958024
0.00137092
0.00186265
0.0024307
0.00306103
0.0037199
0.00433998
0.00483061
0.00506973
-0.00059973
-0.000622772
-0.000611203
-0.000592551
-0.000555917
-0.000499386
-0.000417763
-0.000304411
-0.000150938
5.3046e-05
0.000320065
0.000664611
0.00110244
0.00164304
0.0023008
0.0030712
0.00392524
0.004792
0.00552042
0.00599815
-0.000791771
-0.000820259
-0.000816073
-0.000809791
-0.000789582
-0.00075371
-0.000696596
-0.00061088
-0.000486829
-0.000311771
-6.9525e-05
0.000260063
0.000700815
0.00127848
0.00202239
0.00294992
0.00405277
0.00527563
0.00637618
0.00740295
-0.00100452
-0.00103929
-0.0010436
-0.00105206
-0.00105195
-0.00104216
-0.00101719
-0.000969528
-0.00088878
-0.000760741
-0.000566218
-0.000279487
0.000133638
0.000717027
0.00151442
0.00258034
0.00396179
0.00566184
0.00734033
0.00954311
-0.0012352
-0.0012771
-0.00129054
-0.00131574
-0.00133904
-0.00136061
-0.00137572
-0.00137755
-0.00135628
-0.00129783
-0.0011822
-0.000981364
-0.000655703
-0.000150244
0.000608488
0.00171627
0.00332999
0.00559097
0.00802824
0.0123348
-0.00148057
-0.00152965
-0.00155135
-0.00159403
-0.00164338
-0.00170128
-0.00176412
-0.00182672
-0.00188132
-0.00191627
-0.00191415
-0.00184911
-0.00168254
-0.00135453
-0.000775044
0.000169511
0.00171304
0.00426832
0.00697893
0.0140946
-0.00174035
-0.00180504
-0.00183451
-0.00189943
-0.0019734
-0.00206628
-0.00217787
-0.00230752
-0.00245189
-0.00260446
-0.00275487
-0.00288786
-0.00298126
-0.0030016
-0.00290494
-0.00265932
-0.00207703
-0.000258731
0.000446562
0.00973909
-0.0019976
-0.00204606
-0.00207355
-0.00213739
-0.00223702
-0.00237611
-0.00255446
-0.00276986
-0.00302133
-0.00330902
-0.00363504
-0.00400353
-0.00442464
-0.00492015
-0.00556628
-0.00653505
-0.00800068
-0.00809992
-0.00986557
-0.000193529
-0.00228625
-0.00241846
-0.00243733
-0.00256542
-0.002674
-0.00283674
-0.00304334
-0.00330862
-0.00364157
-0.00405389
-0.00456131
-0.00519396
-0.00600796
-0.00710344
-0.00873251
-0.0112245
-0.015698
-0.0188035
-0.02097
-0.0115237
-0.00265477
-0.00258169
-0.00256217
-0.00255951
-0.00267364
-0.00287722
-0.00317142
-0.00354864
-0.00401405
-0.00457778
-0.0052674
-0.00612483
-0.0072568
-0.00877996
-0.0112354
-0.0148051
-0.0218672
-0.0272251
-0.0318649
-0.0195151
-0.00252174
-0.00307572
-0.00304463
-0.00334262
-0.00340524
-0.00360796
-0.00384583
-0.00419722
-0.00465756
-0.00525863
-0.00601838
-0.00698885
-0.00833044
-0.0100308
-0.0131289
-0.0170624
-0.0255616
-0.0324213
-0.0379126
-0.0162593
-0.00447922
-0.00321384
-0.00303259
-0.0025896
-0.00265347
-0.00290392
-0.00331788
-0.00384446
-0.0044857
-0.00522865
-0.00612763
-0.00716452
-0.00854098
-0.0102271
-0.0129162
-0.0167103
-0.0231327
-0.0276838
-0.0282464
0.00508157
-0.0010242
-0.00427788
-0.0037919
-0.00443639
-0.00416298
-0.00435589
-0.00446541
-0.00485273
-0.00530487
-0.00592531
-0.00675715
-0.00758078
-0.00891947
-0.0103188
-0.0128296
-0.0165065
-0.0221537
-0.0221062
-0.0129582
0.0425994
-0.0152447
-0.00254034
-0.00185868
-0.00167298
-0.00181905
-0.00216941
-0.0027311
-0.00334426
-0.0041441
-0.00490341
-0.00592101
-0.00702478
-0.00822254
-0.00986638
-0.0114645
-0.0124075
-0.0113291
0.00515019
0.0451458
0.139731
1.71613e-05
1.26045e-05
4.49159e-05
9.8778e-05
0.000179491
0.00028755
0.000424169
0.000590459
0.000787054
0.00101374
0.00126898
0.00154935
0.00184895
0.00215903
0.00246735
0.00275831
0.00301388
0.00321232
0.00334641
0.00337385
2.20287e-05
1.68892e-05
4.92742e-05
0.000101569
0.000179968
0.000285091
0.000418385
0.000581207
0.000774484
0.000998365
0.00125174
0.00153144
0.0018321
0.00214561
0.00245973
0.00275857
0.00302326
0.00323045
0.00337266
0.00340214
-1.37296e-05
-2.10365e-05
1.0024e-05
6.011e-05
0.000135986
0.000238398
0.000369155
0.000530096
0.000722743
0.000947953
0.00120541
0.00149321
0.00180694
0.00213851
0.00247575
0.00280175
0.0030955
0.00332912
0.00349201
0.0035272
-7.44799e-05
-8.37316e-05
-5.4664e-05
-7.85361e-06
6.41476e-05
0.000162327
0.000289046
0.00044687
0.000638265
0.000865254
0.00112891
0.00142867
0.00176153
0.00212121
0.00249572
0.00286689
0.00320991
0.00348956
0.003689
0.0037382
-0.000163946
-0.000175641
-0.000149369
-0.00010699
-4.02715e-05
5.20769e-05
0.00017311
0.000326333
0.000515465
0.000744148
0.00101542
0.00133097
0.00169014
0.00208874
0.00251601
0.00295301
0.00337105
0.00372439
0.00398367
0.00406087
-0.000280864
-0.000295624
-0.000273088
-0.00023663
-0.000177139
-9.30123e-05
1.95858e-05
0.000165242
0.000349187
0.000577111
0.000854708
0.00118685
0.0015764
0.00202341
0.0025199
0.00304762
0.00357406
0.00404113
0.00439598
0.00452941
-0.000423981
-0.000442532
-0.000424852
-0.000396195
-0.000346497
-0.000273903
-0.000173789
-4.04258e-05
0.000133101
0.000354893
0.000633998
0.000979689
0.00139977
0.00190111
0.00248185
0.0031281
0.00380576
0.00444586
0.00495412
0.00520465
-0.000591794
-0.000614952
-0.000603397
-0.000584759
-0.000548
-0.000491168
-0.000408965
-0.000294616
-0.000139529
6.69746e-05
0.000337824
0.000688067
0.00113416
0.00168664
0.00236068
0.00315243
0.00403326
0.00493073
0.00568839
0.00618893
-0.000782335
-0.000810957
-0.000806833
-0.000800645
-0.000780414
-0.000744373
-0.00068684
-0.000600309
-0.00047483
-0.000297409
-5.13848e-05
0.000284108
0.000733895
0.00132512
0.00208879
0.00304342
0.00418307
0.00545188
0.00660113
0.00767289
-0.000993125
-0.00102806
-0.0010325
-0.00104118
-0.00104121
-0.00103147
-0.00100637
-0.000958254
-0.000876533
-0.00074668
-0.000548999
-0.00025696
0.000164951
0.000762669
0.00158223
0.00267909
0.00410741
0.00587164
0.00763161
0.00991838
-0.00122123
-0.00126332
-0.00127701
-0.00130259
-0.00132627
-0.00134821
-0.00136361
-0.00136557
-0.00134412
-0.00128494
-0.00116764
-0.000963491
-0.000631594
-0.000114417
0.000665595
0.00180016
0.00346576
0.00580587
0.00837403
0.012817
-0.00146316
-0.00151245
-0.00153453
-0.00157781
-0.00162784
-0.00168653
-0.00175027
-0.00181382
-0.00186937
-0.00190521
-0.00190382
-0.00183912
-0.00167221
-0.0013428
-0.000760043
0.00020435
0.00178934
0.00440864
0.00728202
0.0145741
-0.00171848
-0.00178363
-0.00181368
-0.00187963
-0.00195464
-0.0020488
-0.00216188
-0.00229336
-0.00244006
-0.00259565
-0.0027501
-0.00288878
-0.00299052
-0.00302318
-0.00294512
-0.0027234
-0.00215958
-0.000379171
0.000543201
0.00993199
-0.00196945
-0.00201819
-0.00204645
-0.00211138
-0.00221233
-0.00235321
-0.00253392
-0.00275242
-0.00300794
-0.00330106
-0.0036347
-0.00401463
-0.00445374
-0.00497851
-0.00567769
-0.00673792
-0.0083397
-0.00865975
-0.0100847
-0.00049078
-0.0022507
-0.00238343
-0.00240323
-0.00253355
-0.00264394
-0.00280934
-0.00301904
-0.0032883
-0.00362655
-0.00404628
-0.00456459
-0.00521434
-0.00605682
-0.00719916
-0.00891649
-0.0115753
-0.0163418
-0.0198729
-0.0217045
-0.0122584
-0.00260856
-0.0025362
-0.00251809
-0.00251728
-0.00263297
-0.00283914
-0.00313693
-0.00351911
-0.00399127
-0.00456417
-0.00526699
-0.00614401
-0.00731009
-0.00888566
-0.0114484
-0.0152095
-0.02269
-0.0285251
-0.0330256
-0.0202681
-0.00246748
-0.00302184
-0.00298963
-0.00329138
-0.00335549
-0.00356201
-0.00380364
-0.00416036
-0.00462742
-0.00523754
-0.00600978
-0.00699686
-0.00837107
-0.0101116
-0.0133051
-0.0173447
-0.0262655
-0.0332878
-0.0387762
-0.016412
-0.004401
-0.00314232
-0.0029638
-0.00252486
-0.00258885
-0.00284134
-0.00325861
-0.00379061
-0.00443965
-0.00519174
-0.00610403
-0.00715422
-0.0085577
-0.0102739
-0.0130129
-0.0168663
-0.0234331
-0.0280551
-0.0282836
0.00564352
-0.000965863
-0.00422676
-0.00372427
-0.00437249
-0.00409285
-0.00428587
-0.00439457
-0.0047853
-0.00524326
-0.00586877
-0.0067175
-0.0075413
-0.00891769
-0.0103243
-0.0128761
-0.0165537
-0.0222111
-0.0219959
-0.0124978
0.0436632
-0.0151598
-0.00245351
-0.00176435
-0.00157373
-0.00172017
-0.00207278
-0.00263951
-0.00325835
-0.00406944
-0.00483594
-0.00587383
-0.00698791
-0.00821612
-0.00987513
-0.0115117
-0.0124151
-0.0112931
0.00546044
0.0459279
0.141029
2.02295e-05
1.56692e-05
4.80341e-05
0.000102003
0.000182925
0.000291322
0.000428441
0.000595434
0.000792979
0.0010209
0.00127772
0.00156002
0.00186191
0.0021746
0.00248576
0.00277962
0.00303794
0.00323865
0.00337437
0.00340238
2.52057e-05
2.00574e-05
5.24976e-05
0.0001049
0.000183512
0.000288977
0.000422778
0.000586318
0.000780569
0.00100573
0.00126075
0.00154247
0.00184557
0.00216188
0.0024791
0.00278114
0.00304891
0.00325868
0.00340277
0.00343296
-1.03107e-05
-1.76263e-05
1.34913e-05
6.36876e-05
0.000139782
0.000242548
0.000373837
0.000535538
0.00072923
0.000955836
0.0012151
0.0015052
0.00182173
0.0021566
0.00249756
0.00282753
0.00312517
0.00336218
0.00352759
0.00356378
-7.06906e-05
-7.99508e-05
-5.08249e-05
-3.90239e-06
6.83249e-05
0.000166874
0.000294157
0.0004528
0.000645344
0.000873898
0.00113963
0.00144208
0.00177832
0.0021421
0.00252137
0.00289777
0.0032461
0.00353053
0.00373362
0.00378439
-0.000159673
-0.000171376
-0.000145047
-0.000102557
-3.5608e-05
5.71249e-05
0.000178757
0.000332868
0.000523273
0.000753735
0.00102743
0.00134619
0.00170953
0.00211334
0.00254686
0.00299097
0.00341654
0.00377692
0.00404175
0.00412157
-0.000275977
-0.000290747
-0.000268159
-0.000231599
-0.000171882
-8.73666e-05
2.58535e-05
0.000172456
0.000357795
0.000587717
0.000868113
0.00120409