/*--------------------------------*- C++ -*----------------------------------*\
  =========                 |
  \\      /  F ield         | OpenFOAM: The Open Source CFD Toolbox
   \\    /   O peration     | Website:  https://openfoam.org
    \\  /    A nd           | Version:  9
     \\/     M anipulation  |
\*---------------------------------------------------------------------------*/
FoamFile
{
    format      ascii;
    class       surfaceScalarField;
    location    "6";
    object      phi;
}
// * * * * * * * * * * * * * * * * * * * * * * * * * * * * * * * * * * * * * //

dimensions      [0 3 -1 0 0 0 0];

internalField   nonuniform List<scalar> 
22800
(
-3.4601e-06
3.75213e-06
-2.91009e-07
-9.45797e-06
6.01803e-06
-2.01577e-08
-1.5891e-05
6.38564e-06
4.73677e-08
-2.2351e-05
6.36941e-06
9.06537e-08
-2.86892e-05
6.24742e-06
9.07458e-08
-3.48015e-05
6.04843e-06
6.38714e-08
-4.05663e-05
5.75048e-06
1.42661e-08
-4.58353e-05
5.3214e-06
-5.23529e-08
-5.04201e-05
4.72732e-06
-1.42512e-07
-5.40928e-05
3.93226e-06
-2.59586e-07
-5.65866e-05
2.90189e-06
-4.08045e-07
-5.76081e-05
1.61007e-06
-5.88646e-07
-5.68463e-05
3.21793e-08
-7.93979e-07
-5.4022e-05
-1.80185e-06
-1.02241e-06
-4.89177e-05
-3.84476e-06
-1.25953e-06
-4.14548e-05
-5.97741e-06
-1.4855e-06
-3.1769e-05
-8.02111e-06
-1.66472e-06
-2.03637e-05
-9.67021e-06
-1.73505e-06
-8.37175e-06
-1.03119e-05
-1.68003e-06
-7.35607e-06
-1.01568e-06
-5.74203e-06
1.02803e-05
-7.8614e-07
-1.48031e-05
1.56189e-05
-5.39771e-07
-2.43899e-05
1.64311e-05
-4.58601e-07
-3.39163e-05
1.62721e-05
-3.76359e-07
-4.31505e-05
1.5814e-05
-3.32393e-07
-5.19231e-05
1.51313e-05
-3.10212e-07
-6.00528e-05
1.41856e-05
-3.05447e-07
-6.73281e-05
1.29171e-05
-3.20444e-07
-7.34982e-05
1.12565e-05
-3.59012e-07
-7.82674e-05
9.12753e-06
-4.26071e-07
-8.12943e-05
6.45607e-06
-5.27344e-07
-8.22353e-05
3.21581e-06
-6.64715e-07
-8.07333e-05
-6.20407e-07
-8.49354e-07
-7.63857e-05
-5.09514e-06
-1.05432e-06
-6.89523e-05
-9.99825e-06
-1.27995e-06
-5.83446e-05
-1.50828e-05
-1.50235e-06
-4.47482e-05
-1.99396e-05
-1.67791e-06
-2.88249e-05
-2.38598e-05
-1.73364e-06
-1.20958e-05
-2.53841e-05
-1.65704e-06
-1.85814e-05
-8.70408e-07
-6.24234e-06
1.74974e-05
-9.74755e-07
-1.60625e-05
2.618e-05
-7.40963e-07
-2.64314e-05
2.74542e-05
-6.54297e-07
-3.67244e-05
2.71221e-05
-5.56989e-07
-4.67038e-05
2.62904e-05
-4.96859e-07
-5.61988e-05
2.50835e-05
-4.57233e-07
-6.50268e-05
2.34482e-05
-4.34608e-07
-7.29735e-05
2.12963e-05
-4.32505e-07
-7.97837e-05
1.85233e-05
-4.56609e-07
-8.51572e-05
1.50143e-05
-5.13273e-07
-8.87488e-05
1.06557e-05
-6.08041e-07
-9.01433e-05
5.35963e-06
-7.49313e-07
-8.88973e-05
-9.27151e-07
-9.39266e-07
-8.45768e-05
-8.24625e-06
-1.16938e-06
-7.68232e-05
-1.63212e-05
-1.43064e-06
-6.54411e-05
-2.47666e-05
-1.69827e-06
-5.05335e-05
-3.29254e-05
-1.92177e-06
-3.27621e-05
-3.96201e-05
-2.01113e-06
-1.38414e-05
-4.23594e-05
-1.94546e-06
-3.1365e-05
-1.05778e-06
-6.38915e-06
2.50328e-05
-1.14628e-06
-1.65364e-05
3.72572e-05
-9.29983e-07
-2.72692e-05
3.90285e-05
-8.41467e-07
-3.79573e-05
3.85444e-05
-7.3424e-07
-4.83739e-05
3.73703e-05
-6.63347e-07
-5.83634e-05
3.56853e-05
-6.12235e-07
-6.77593e-05
3.34223e-05
-5.78288e-07
-7.63615e-05
3.04646e-05
-5.66135e-07
-8.39224e-05
2.66673e-05
-5.82979e-07
-9.01356e-05
2.18647e-05
-6.37287e-07
-9.46261e-05
1.58839e-05
-7.37652e-07
-9.69436e-05
8.57153e-06
-8.94382e-07
-9.65987e-05
-1.47528e-07
-1.12451e-06
-9.29424e-05
-1.05004e-05
-1.40222e-06
-8.54459e-05
-2.20851e-05
-1.73266e-06
-7.36865e-05
-3.44413e-05
-2.0846e-06
-5.7579e-05
-4.66373e-05
-2.39559e-06
-3.77439e-05
-5.68991e-05
-2.55613e-06
-1.61359e-05
-6.14433e-05
-2.52405e-06
-4.60099e-05
-1.49101e-06
-6.50558e-06
3.28451e-05
-1.30667e-06
-1.69813e-05
4.88363e-05
-1.10335e-06
-2.80994e-05
5.1161e-05
-1.0144e-06
-3.92223e-05
5.05679e-05
-9.00584e-07
-5.01397e-05
4.91117e-05
-8.24031e-07
-6.07203e-05
4.70342e-05
-7.68237e-07
-7.08237e-05
4.42574e-05
-7.31595e-07
-8.02757e-05
4.06366e-05
-7.20115e-07
-8.88492e-05
3.59837e-05
-7.42892e-07
-9.62436e-05
3.00703e-05
-8.11177e-07
-0.000102063
2.26409e-05
-9.37432e-07
-0.000105797
1.34401e-05
-1.13496e-06
-0.000106815
2.28522e-06
-1.4148e-06
-0.000104342
-1.11789e-05
-1.79436e-06
-9.75168e-05
-2.66602e-05
-2.24985e-06
-8.55659e-05
-4.36346e-05
-2.75765e-06
-6.80353e-05
-6.09256e-05
-3.24233e-06
-4.53292e-05
-7.60542e-05
-3.551e-06
-1.9765e-05
-8.34088e-05
-3.59862e-06
-6.34238e-05
-2.35107e-06
-6.64075e-06
4.09715e-05
-1.48564e-06
-1.75106e-05
6.10005e-05
-1.29433e-06
-2.90927e-05
6.39487e-05
-1.20559e-06
-4.07367e-05
6.32977e-05
-1.08583e-06
-5.2253e-05
6.16333e-05
-1.00519e-06
-6.35428e-05
5.92713e-05
-9.47282e-07
-7.45033e-05
5.61296e-05
-9.11789e-07
-8.50001e-05
5.20399e-05
-9.06451e-07
-9.48443e-05
4.67706e-05
-9.42734e-07
-0.000103762
4.00235e-05
-1.03528e-06
-0.000111358
3.14379e-05
-1.20147e-06
-0.000117071
2.06141e-05
-1.46104e-06
-0.000120127
7.17444e-06
-1.83273e-06
-0.000119564
-9.37448e-06
-2.36731e-06
-0.000114077
-2.91214e-05
-3.02622e-06
-0.000102348
-5.1564e-05
-3.79905e-06
-8.32941e-05
-7.53821e-05
-4.59784e-06
-5.67725e-05
-9.73685e-05
-5.20729e-06
-2.55323e-05
-0.00010921
-5.43888e-06
-8.4988e-05
-3.96814e-06
-6.78969e-06
4.94656e-05
-1.70446e-06
-1.81158e-05
7.38547e-05
-1.52817e-06
-3.02298e-05
7.7502e-05
-1.43927e-06
-4.24626e-05
7.68418e-05
-1.31138e-06
-5.46494e-05
7.50447e-05
-1.22454e-06
-6.67329e-05
7.25176e-05
-1.16288e-06
-7.86613e-05
6.91859e-05
-1.12791e-06
-9.036e-05
6.48684e-05
-1.12975e-06
-0.000101704
5.92978e-05
-1.18317e-06
-0.000112479
5.21065e-05
-1.3078e-06
-0.000122329
4.28157e-05
-1.52857e-06
-0.000130677
3.0838e-05
-1.87526e-06
-0.000136646
1.55234e-05
-2.3798e-06
-0.000139044
-3.83277e-06
-3.14421e-06
-0.000136021
-2.80198e-05
-4.12403e-06
-0.000125467
-5.67774e-05
-5.34068e-06
-0.000105239
-8.89047e-05
-6.70621e-06
-7.40386e-05
-0.000120628
-7.9408e-06
-3.48956e-05
-0.000139756
-8.59745e-06
-0.000112883
-7.00081e-06
-6.94179e-06
5.83876e-05
-1.98014e-06
-1.87751e-05
8.75129e-05
-1.82492e-06
-3.14678e-05
9.19288e-05
-1.73407e-06
-4.43258e-05
9.12927e-05
-1.59287e-06
-5.72121e-05
8.94251e-05
-1.49402e-06
-7.01195e-05
8.68478e-05
-1.42287e-06
-8.30629e-05
8.35128e-05
-1.38356e-06
-9.60507e-05
7.92456e-05
-1.38934e-06
-0.000109056
7.37628e-05
-1.45947e-06
-0.000121974
6.66446e-05
-1.62062e-06
-0.00013455
5.73013e-05
-1.9094e-06
-0.000146278
4.49414e-05
-2.37489e-06
-0.000156232
2.85644e-05
-3.08711e-06
-0.000163017
7.08105e-06
-4.12888e-06
-0.000164267
-2.11588e-05
-5.611e-06
-0.00015674
-5.67426e-05
-7.56195e-06
-0.000136614
-9.9086e-05
-9.94506e-06
-0.000100416
-0.000144369
-1.24563e-05
-5.09696e-05
-0.000175058
-1.4145e-05
-0.00015081
-1.30429e-05
-7.09259e-06
6.78134e-05
-2.33322e-06
-1.94781e-05
0.000102107
-2.20844e-06
-3.27757e-05
0.000107338
-2.11147e-06
-4.62596e-05
0.000106724
-1.94752e-06
-5.98213e-05
0.000104812
-1.82568e-06
-7.35115e-05
0.000102272
-1.73376e-06
-8.74261e-05
9.91069e-05
-1.67951e-06
-0.000101681
9.51801e-05
-1.68012e-06
-0.000116385
9.02276e-05
-1.76032e-06
-0.000131602
8.38172e-05
-1.95562e-06
-0.000147272
7.52886e-05
-2.31753e-06
-0.000163088
6.36782e-05
-2.92061e-06
-0.000178286
4.76348e-05
-3.87223e-06
-0.000191283
2.53788e-05
-5.30128e-06
-0.000199566
-5.299e-06
-7.57654e-06
-0.000198316
-4.72931e-05
-1.06996e-05
-0.000181291
-0.000101245
-1.48658e-05
-0.000141302
-0.000164471
-1.98864e-05
-7.95257e-05
-0.000212784
-2.40502e-05
-0.000204327
-2.60079e-05
-7.25133e-06
7.78583e-05
-2.79365e-06
-2.02431e-05
0.000117811
-2.71233e-06
-3.41554e-05
0.000123851
-2.60086e-06
-4.82298e-05
0.000123196
-2.39794e-06
-6.2382e-05
0.000121199
-2.2342e-06
-7.67268e-05
0.000118718
-2.10192e-06
-9.14515e-05
0.000115845
-2.01383e-06
-0.000106799
0.00011252
-1.99185e-06
-0.000123057
0.000108553
-2.0671e-06
-0.000140527
0.000103573
-2.28586e-06
-0.000159462
9.69433e-05
-2.71959e-06
-0.000179932
8.76283e-05
-3.48029e-06
-0.000201566
7.4005e-05
-4.7364e-06
-0.000223093
5.36365e-05
-6.73061e-06
-0.000241677
2.31458e-05
-9.86113e-06
-0.00025191
-2.22845e-05
-1.47755e-05
-0.000244129
-8.70376e-05
-2.19888e-05
-0.00020538
-0.000171444
-3.17761e-05
-0.000131354
-0.000244957
-4.18524e-05
-0.000280419
-5.52632e-05
-7.45274e-06
8.87209e-05
-3.40983e-06
-2.11405e-05
0.000134887
-3.38796e-06
-3.56694e-05
0.000141625
-3.24479e-06
-5.02664e-05
0.000140768
-2.9748e-06
-6.48587e-05
0.000138529
-2.7382e-06
-7.96302e-05
0.000136024
-2.5341e-06
-9.48607e-05
0.000133457
-2.38097e-06
-0.000110924
0.000130889
-2.30588e-06
-0.000128298
0.000128273
-2.34585e-06
-0.000147566
0.000125397
-2.55647e-06
-0.000169389
0.000121793
-3.02638e-06
-0.000194436
0.000116578
-3.90266e-06
-0.000223161
0.000108163
-5.43307e-06
-0.000255269
9.37716e-05
-8.02674e-06
-0.000288675
6.88728e-05
-1.23215e-05
-0.000318199
2.69376e-05
-1.96974e-05
-0.000331264
-4.22927e-05
-3.16801e-05
-0.000305947
-0.000146859
-4.99017e-05
-0.000226565
-0.000252984
-7.13544e-05
-0.000391423
-0.000115561
-7.77914e-06
0.000100767
-4.26744e-06
-2.23377e-05
0.000153783
-4.33733e-06
-3.74833e-05
0.000160908
-4.13778e-06
-5.25067e-05
0.000159551
-3.7595e-06
-6.73193e-05
0.000156732
-3.3896e-06
-8.21908e-05
0.000153948
-3.05226e-06
-9.74803e-05
0.000151525
-2.77896e-06
-0.000113678
0.000149689
-2.60226e-06
-0.000131451
0.00014861
-2.56329e-06
-0.00015169
0.000148363
-2.72633e-06
-0.000175568
0.000148873
-3.20246e-06
-0.000204552
0.000149747
-4.18577e-06
-0.000240285
0.000149905
-6.00896e-06
-0.00028418
0.000146917
-9.25132e-06
-0.000336455
0.000135981
-1.48321e-05
-0.000393527
0.000108019
-2.40095e-05
-0.000444863
4.98831e-05
-4.08401e-05
-0.000458065
-6.49728e-05
-6.86839e-05
-0.000389839
-0.000221433
-9.97781e-05
-0.000598058
-0.000183203
-8.26864e-06
0.000114532
-5.49553e-06
-2.40064e-05
0.000175055
-5.53502e-06
-3.97707e-05
0.000181872
-5.19936e-06
-5.53215e-05
0.000179687
-4.58555e-06
-7.013e-05
0.000175582
-4.0424e-06
-8.46576e-05
0.000172022
-3.54709e-06
-9.93457e-05
0.000169339
-3.12511e-06
-0.00011479
0.000167933
-2.80022e-06
-0.000131759
0.00016819
-2.61206e-06
-0.000151296
0.00017052
-2.61981e-06
-0.000174933
0.000175433
-2.92356e-06
-0.00020497
0.000183487
-3.70299e-06
-0.000244709
0.000194925
-5.28129e-06
-0.000298389
0.000208845
-8.24768e-06
-0.000371058
0.000222198
-1.35482e-05
-0.000465739
0.000224659
-2.1959e-05
-0.000577932
0.000198057
-3.59806e-05
-0.000657885
6.75574e-05
-5.25771e-05
-0.000617795
-0.000236424
-2.50988e-05
-0.00110786
-0.000107994
-1.07013e-05
0.000132759
-7.5262e-06
-2.78568e-05
0.000200249
-8.03845e-06
-4.40721e-05
0.000205562
-7.47512e-06
-5.88011e-05
0.000201079
-6.66208e-06
-7.26518e-05
0.000195082
-5.64858e-06
-8.62533e-05
0.000190312
-4.68822e-06
-9.99882e-05
0.000186893
-3.81973e-06
-0.000114219
0.000185283
-3.1189e-06
-0.00012954
0.000186141
-2.6289e-06
-0.000146994
0.000190376
-2.40246e-06
-0.000168328
0.000199289
-2.52276e-06
-0.000196359
0.000214639
-3.1208e-06
-0.000235737
0.000238682
-4.37814e-06
-0.000293251
0.000272759
-6.39951e-06
-0.000381132
0.000318658
-8.5789e-06
-0.000511062
0.000360948
-6.35944e-06
-0.000696508
0.000374381
9.12115e-06
-0.000862238
0.000163227
7.00608e-05
-0.000818175
-0.000526599
0.000246112
-0.00201079
8.476e-05
-8.26584e-06
0.000151555
-1.05305e-05
-2.91518e-05
0.000230912
-9.77657e-06
-4.69256e-05
0.00023214
-8.8045e-06
-6.49808e-05
0.00022605
-6.91632e-06
-7.9501e-05
0.000215124
-5.52184e-06
-9.23399e-05
0.000207391
-4.23998e-06
-0.000103715
0.000201444
-3.17497e-06
-0.000114451
0.000198287
-2.26821e-06
-0.000125199
0.000198418
-1.53018e-06
-0.00013674
0.000202875
-9.57597e-07
-0.000150292
0.00021341
-5.69014e-07
-0.0001684
0.000233017
-2.69503e-07
-0.000196816
0.000266832
2.66456e-07
-0.000244055
0.000317493
2.50465e-06
-0.000336537
0.000400544
1.05967e-05
-0.000496833
0.000479541
4.17035e-05
-0.000773639
0.00052449
0.000126698
-0.00101669
0.000117059
0.000289219
-0.000856518
-0.00118308
0.000496308
-0.00288577
1.84578e-05
-3.31212e-05
0.000200133
-1.5456e-05
-5.0252e-05
0.000264191
-1.61485e-05
-6.37168e-05
0.000260443
-1.48375e-05
-7.26529e-05
0.000248103
-1.31171e-05
-8.13894e-05
0.000234172
-1.03114e-05
-9.05675e-05
0.000224344
-7.77511e-06
-0.00010003
0.00021627
-5.36405e-06
-0.000109192
0.000210809
-3.36042e-06
-0.000117644
0.000208622
-1.75178e-06
-0.000124952
0.000210727
-5.43748e-07
-0.000131462
0.000219581
3.4e-07
-0.000137709
0.000238078
1.18644e-06
-0.00015006
0.000276322
2.86026e-06
-0.000172965
0.000330543
9.85521e-06
-0.000247398
0.000445467
2.95095e-05
-0.000405162
0.000542706
9.45983e-05
-0.000714879
0.000593684
0.000240523
-0.000962516
-7.81815e-05
0.000442878
-0.000774924
-0.00184734
0.000476671
-0.0034366
-0.000224097
9.89246e-06
0.000222358
-3.21176e-05
-3.33896e-05
0.0003342
-2.67264e-05
-6.35356e-05
0.000308869
-1.82802e-05
-8.81728e-05
0.000283911
-1.11703e-05
-0.000102738
0.000255742
-7.00474e-06
-0.000112125
0.000237158
-3.42661e-06
-0.000116816
0.000221599
-6.38397e-07
-0.000118965
0.000211152
1.80667e-06
-0.000118146
0.000204147
3.65539e-06
-0.000113875
0.000201244
5.21216e-06
-0.000103871
0.000203374
6.20254e-06
-8.60573e-05
0.000212586
7.67762e-06
-6.17099e-05
0.000241662
1.03126e-05
-3.51399e-05
0.000281537
2.24358e-05
-2.93612e-05
0.000390061
4.96275e-05
-0.000109631
0.000486179
0.000136797
-0.000357035
0.000538384
0.000302704
-0.000642334
-0.000261879
0.000468996
-0.000650494
-0.00217152
0.00033234
-0.00375167
-0.000335416
-9.33811e-05
0.000344538
-2.87986e-05
-8.91279e-05
0.000360462
-3.05158e-05
-8.75783e-05
0.000338967
-3.16477e-05
-9.90597e-05
0.000325461
-3.00694e-05
-0.000101571
0.000279668
-2.14151e-05
-0.000102755
0.000251617
-1.32752e-05
-0.00010189
0.000226682
-5.9484e-06
-9.81099e-05
0.000207582
-2.09828e-07
-9.14972e-05
0.000193554
3.98037e-06
-7.85822e-05
0.000181528
6.80095e-06
-5.94349e-05
0.000175934
8.29266e-06
-2.83385e-05
0.000171679
9.81123e-06
2.08505e-05
0.00018317
9.30326e-06
8.54872e-05
0.000195252
2.16483e-05
0.000176461
0.000259075
4.00118e-05
0.000253097
0.000288631
0.000120911
0.000287965
0.000286267
0.000217249
6.91862e-05
-0.000375689
0.000332589
-0.000212207
-0.00207164
0.00018151
-0.00354928
-0.000414605
-0.00038346
0.000856246
-0.000128248
-0.000344577
0.000386332
-6.47525e-05
-0.000283177
0.000314917
-3.735e-05
-0.000181288
0.000241269
-1.76967e-05
-8.28644e-05
0.000187709
-6.46458e-06
1.19724e-05
0.000150975
5.80556e-06
9.61348e-05
0.000127835
1.46854e-05
0.000169985
0.000111556
2.21763e-05
0.000238801
9.94169e-05
2.5321e-05
0.000298698
9.15803e-05
3.00503e-05
0.000360506
8.49956e-05
2.91304e-05
0.0004247
8.1664e-05
2.58203e-05
0.00050525
8.03827e-05
2.22379e-05
0.00060886
7.75083e-05
1.4133e-05
0.000781975
8.16204e-05
4.33946e-06
0.000964175
4.41055e-05
6.23263e-05
0.0012456
-3.49572e-05
3.97993e-05
0.00122095
-0.000446207
9.51691e-05
0.000511673
-0.00148763
0.00012527
-0.00250826
-0.000529338
0.000960288
-0.000104042
0.00144695
-0.000100326
0.00186169
-9.98278e-05
0.00219574
-9.27792e-05
0.0024639
-8.04504e-05
0.00268541
-7.05369e-05
0.00287359
-6.03463e-05
0.00303327
-4.81269e-05
0.00317381
-4.11199e-05
0.00329365
-2.82632e-05
0.00340131
-2.26563e-05
0.00349595
-1.29767e-05
0.00358038
-4.04731e-06
0.00367022
-1.23336e-05
0.00373366
1.81847e-05
0.00380606
-2.83007e-05
0.00372857
4.2537e-05
0.00332754
-4.51807e-05
0.00184482
-4.91588e-06
-0.000663441
-5.42149e-06
5.58018e-06
-4.49698e-07
-1.45686e-05
9.40925e-06
-2.82344e-07
-2.42902e-05
9.98747e-06
-2.18479e-07
-3.38737e-05
9.84404e-06
-1.69878e-07
-4.31114e-05
9.49111e-06
-1.62696e-07
-5.18529e-05
8.99112e-06
-1.85674e-07
-5.99245e-05
8.32143e-06
-2.35621e-07
-6.7111e-05
7.44796e-06
-3.13813e-07
-7.31608e-05
6.33102e-06
-4.23713e-07
-7.77815e-05
4.92993e-06
-5.68765e-07
-8.06451e-05
3.20752e-06
-7.51985e-07
-8.13992e-05
1.14021e-06
-9.74731e-07
-7.96788e-05
-1.28087e-06
-1.23352e-06
-7.51616e-05
-4.01967e-06
-1.51998e-06
-6.76184e-05
-6.98345e-06
-1.81929e-06
-5.69841e-05
-1.00137e-05
-2.10605e-06
-4.34473e-05
-1.28609e-05
-2.34068e-06
-2.76419e-05
-1.50769e-05
-2.46352e-06
-1.12406e-05
-1.56316e-05
-2.44966e-06
-1.0443e-05
-1.81328e-06
-9.54386e-06
1.5236e-05
-8.981e-07
-2.40756e-05
2.41854e-05
-7.8416e-07
-3.92954e-05
2.54523e-05
-7.03591e-07
-5.41538e-05
2.49432e-05
-6.17066e-07
-6.8299e-05
2.38731e-05
-5.69266e-07
-8.14646e-05
2.23966e-05
-5.5005e-07
-9.33709e-05
2.04799e-05
-5.57723e-07
-0.000103707
1.80599e-05
-5.95875e-07
-0.000112128
1.50626e-05
-6.70118e-07
-0.000118246
1.14086e-05
-7.86641e-07
-0.000121632
7.01751e-06
-9.51273e-07
-0.000121888
1.89746e-06
-1.1663e-06
-0.000118552
-4.02727e-06
-1.43832e-06
-0.000111226
-1.06542e-05
-1.74591e-06
-9.96561e-05
-1.77571e-05
-2.07651e-06
-8.37969e-05
-2.49754e-05
-2.39991e-06
-6.39312e-05
-3.17375e-05
-2.66696e-06
-4.09355e-05
-3.70013e-05
-2.80507e-06
-1.70989e-05
-3.83427e-05
-2.78249e-06
-2.64238e-05
-1.98859e-06
-1.05808e-05
2.59401e-05
-1.09805e-06
-2.65788e-05
4.04533e-05
-1.01087e-06
-4.32861e-05
4.24297e-05
-9.24368e-07
-5.95685e-05
4.14908e-05
-8.22237e-07
-7.50563e-05
3.9622e-05
-7.57931e-07
-8.94722e-05
3.70766e-05
-7.21309e-07
-0.000102527
3.38121e-05
-7.12011e-07
-0.000113902
2.97377e-05
-7.35383e-07
-0.000123241
2.47438e-05
-7.9905e-07
-0.000130145
1.87113e-05
-9.11374e-07
-0.000134185
1.15289e-05
-1.07996e-06
-0.000134852
3.12861e-06
-1.31299e-06
-0.000131628
-6.58014e-06
-1.61086e-06
-0.000124037
-1.74495e-05
-1.96446e-06
-0.000111703
-2.91643e-05
-2.3578e-06
-9.44555e-05
-4.11632e-05
-2.75781e-06
-7.24821e-05
-5.25267e-05
-3.10597e-06
-4.66717e-05
-6.15122e-05
-3.31061e-06
-1.9618e-05
-6.4018e-05
-3.32387e-06
-4.46771e-05
-2.42244e-06
-1.09917e-05
3.70826e-05
-1.29708e-06
-2.76954e-05
5.74687e-05
-1.24166e-06
-4.51521e-05
6.01974e-05
-1.15246e-06
-6.22011e-05
5.88433e-05
-1.03772e-06
-7.8483e-05
5.6201e-05
-9.60539e-07
-9.37363e-05
5.26289e-05
-9.1119e-07
-0.000107688
4.8076e-05
-8.90601e-07
-0.000120033
4.24224e-05
-9.05635e-07
-0.000130422
3.55158e-05
-9.66242e-07
-0.000138446
2.71821e-05
-1.08399e-06
-0.00014363
1.72461e-05
-1.27055e-06
-0.000145435
5.57684e-06
-1.53798e-06
-0.000143225
-8.01416e-06
-1.90012e-06
-0.000136306
-2.34292e-05
-2.34127e-06
-0.000124066
-4.02856e-05
-2.8516e-06
-0.000106059
-5.78632e-05
-3.39231e-06
-8.22496e-05
-7.48401e-05
-3.89114e-06
-5.34744e-05
-8.86135e-05
-4.22996e-06
-2.27028e-05
-9.29887e-05
-4.32497e-06
-6.56063e-05
-3.26464e-06
-1.13881e-05
4.86652e-05
-1.50119e-06
-2.88305e-05
7.52864e-05
-1.47862e-06
-4.70978e-05
7.88378e-05
-1.38748e-06
-6.49991e-05
7.71065e-05
-1.26251e-06
-8.21933e-05
7.37469e-05
-1.17568e-06
-9.84468e-05
6.92322e-05
-1.118e-06
-0.000113517
6.35065e-05
-1.09236e-06
-0.000127126
5.64204e-05
-1.10818e-06
-0.000138947
4.77715e-05
-1.17843e-06
-0.000148569
3.73125e-05
-1.31903e-06
-0.000155483
2.47706e-05
-1.54765e-06
-0.00015905
9.89172e-06
-1.88322e-06
-0.000158511
-7.62431e-06
-2.34374e-06
-0.000152908
-2.7895e-05
-2.93165e-06
-0.00014126
-5.05448e-05
-3.63864e-06
-0.000122668
-7.47875e-05
-4.42547e-06
-9.66348e-05
-9.89133e-05
-5.2021e-06
-6.37496e-05
-0.00011925
-5.79932e-06
-2.754e-05
-0.000126735
-6.06164e-06
-9.073e-05
-4.76743e-06
-1.18779e-05
6.0795e-05
-1.73764e-06
-3.02292e-05
9.40955e-05
-1.75215e-06
-4.94938e-05
9.85554e-05
-1.65862e-06
-6.84388e-05
9.6488e-05
-1.52228e-06
-8.67469e-05
9.24753e-05
-1.42538e-06
-0.000104223
8.71211e-05
-1.35991e-06
-0.000120669
8.0372e-05
-1.33102e-06
-0.000135857
7.20524e-05
-1.35128e-06
-0.000149497
6.1907e-05
-1.43792e-06
-0.000161207
4.96001e-05
-1.61257e-06
-0.000170463
3.47257e-05
-1.901e-06
-0.000176547
1.6848e-05
-2.33301e-06
-0.000178552
-4.51093e-06
-2.94133e-06
-0.00017517
-2.98895e-05
-3.75463e-06
-0.000164911
-5.90603e-05
-4.76949e-06
-0.000146173
-9.13671e-05
-5.95749e-06
-0.000117648
-0.000124824
-7.21287e-06
-7.9264e-05
-0.000154547
-8.29502e-06
-3.52414e-05
-0.0001673
-8.89655e-06
-0.000122616
-7.32319e-06
-1.24684e-05
7.3589e-05
-2.0301e-06
-3.19107e-05
0.0001141
-2.0905e-06
-5.23601e-05
0.000119558
-1.99251e-06
-7.2529e-05
0.000117185
-1.83994e-06
-9.21298e-05
0.000112579
-1.7278e-06
-0.000111018
0.000106496
-1.64963e-06
-0.00012906
9.88996e-05
-1.61363e-06
-0.0001461
8.95991e-05
-1.63625e-06
-0.000161928
7.82914e-05
-1.74024e-06
-0.000176226
6.45456e-05
-1.95527e-06
-0.000188504
4.77939e-05
-2.31891e-06
-0.000197997
2.73453e-05
-2.87886e-06
-0.000203719
2.52343e-06
-3.69264e-06
-0.000203919
-2.80116e-05
-4.82161e-06
-0.000196478
-6.4329e-05
-6.297e-06
-0.000178753
-0.000106311
-8.12161e-06
-0.000148059
-0.000152035
-1.01893e-05
-0.000102855
-0.000195504
-1.21872e-05
-4.79555e-05
-0.000217314
-1.3483e-05
-0.000165855
-1.17175e-05
-1.31561e-05
8.7167e-05
-2.40195e-06
-3.38689e-05
0.00013551
-2.52158e-06
-5.56737e-05
0.000142044
-2.41463e-06
-7.72149e-05
0.00013937
-2.2364e-06
-9.82393e-05
0.000134208
-2.09835e-06
-0.000118667
0.000127498
-1.99637e-06
-0.000138452
0.000119243
-1.94275e-06
-0.000157545
0.000109262
-1.95874e-06
-0.000175861
9.72217e-05
-2.07383e-06
-0.000193216
8.26075e-05
-2.32789e-06
-0.000209241
6.46845e-05
-2.77431e-06
-0.000223258
4.24683e-05
-3.48145e-06
-0.000234051
1.47603e-05
-4.53058e-06
-0.000239869
-2.02172e-05
-6.10511e-06
-0.000237653
-6.3906e-05
-8.25028e-06
-0.000223379
-0.000117087
-1.10598e-05
-0.000192149
-0.000178725
-1.44848e-05
-0.000139663
-0.000242273
-1.81723e-05
-7.06141e-05
-0.000279604
-2.09049e-05
-0.000230018
-1.94939e-05
-1.39473e-05
0.000101664
-2.88345e-06
-3.61148e-05
0.000158549
-3.08076e-06
-5.94291e-05
0.000166203
-2.95659e-06
-8.2452e-05
0.000163182
-2.73675e-06
-0.000104968
0.000157453
-2.55435e-06
-0.000126977
0.000150182
-2.40894e-06
-0.000148542
0.000141447
-2.3181e-06
-0.000169763
0.000131111
-2.30879e-06
-0.000190734
0.000118851
-2.41819e-06
-0.000211489
0.000104105
-2.69825e-06
-0.0002319
8.60014e-05
-3.22273e-06
-0.000251521
6.32645e-05
-4.09657e-06
-0.000269286
3.41278e-05
-5.47414e-06
-0.000283485
-3.7548e-06
-7.56507e-06
-0.000290265
-5.40808e-05
-1.06217e-05
-0.000284
-0.000119156
-1.48959e-05
-0.000256576
-0.000200474
-2.05408e-05
-0.000199122
-0.000292312
-2.73013e-05
-0.000113391
-0.000356324
-3.3061e-05
-0.000335151
-3.42661e-05
-1.48677e-05
0.000117257
-3.51868e-06
-3.86997e-05
0.000183487
-3.81821e-06
-6.36665e-05
0.000192231
-3.66218e-06
-8.82391e-05
0.000188732
-3.37485e-06
-0.000112239
0.000182337
-3.11823e-06
-0.00013576
0.000174498
-2.8975e-06
-0.000158999
0.00016541
-2.73713e-06
-0.00018224
0.000155031
-2.67043e-06
-0.000205826
0.000143112
-2.74253e-06
-0.000230114
0.000129126
-3.01834e-06
-0.000255391
0.000112154
-3.59504e-06
-0.000281697
9.07095e-05
-4.61981e-06
-0.000308492
6.24933e-05
-6.30674e-06
-0.000334191
2.41532e-05
-8.93966e-06
-0.000355424
-2.95667e-05
-1.31426e-05
-0.000365134
-0.000104739
-1.94815e-05
-0.000351428
-0.00020754
-2.8629e-05
-0.000298533
-0.000336183
-4.08002e-05
-0.000199446
-0.000444189
-5.3075e-05
-0.000525818
-6.40423e-05
-1.59768e-05
0.000134201
-4.37629e-06
-4.17427e-05
0.000210674
-4.80868e-06
-6.85052e-05
0.000220343
-4.59449e-06
-9.46568e-05
0.000216106
-4.19762e-06
-0.000120046
0.000208808
-3.82005e-06
-0.000144873
0.000200266
-3.47497e-06
-0.000169488
0.000190839
-3.19501e-06
-0.000194381
0.000180637
-3.01978e-06
-0.000220182
0.000169567
-3.00022e-06
-0.000247654
0.000157252
-3.20998e-06
-0.000277662
0.000142899
-3.76327e-06
-0.000311082
0.000125071
-4.84464e-06
-0.000348535
0.000101269
-6.75635e-06
-0.000389678
6.7261e-05
-9.99155e-06
-0.000432944
1.6677e-05
-1.52983e-05
-0.000471424
-6.16473e-05
-2.43091e-05
-0.000491982
-0.000180194
-3.84681e-05
-0.00047015
-0.000348551
-5.93661e-05
-0.000372605
-0.000529705
-8.33827e-05
-0.000896072
-0.000117912
-1.74144e-05
0.000152917
-5.5699e-06
-4.55075e-05
0.000240611
-6.18135e-06
-7.42074e-05
0.000250775
-5.86938e-06
-0.000101904
0.000245343
-5.30023e-06
-0.000128481
0.000236718
-4.72217e-06
-0.000154271
0.000227174
-4.17036e-06
-0.000179771
0.000217252
-3.69151e-06
-0.000205682
0.000207277
-3.33201e-06
-0.000232955
0.000197423
-3.14542e-06
-0.000262849
0.000187628
-3.20903e-06
-0.000296995
0.000177493
-3.65112e-06
-0.000337426
0.000166008
-4.69169e-06
-0.00038649
0.000151033
-6.70903e-06
-0.0004465
0.000128381
-1.03612e-05
-0.000518469
9.05739e-05
-1.67602e-05
-0.000602095
2.54494e-05
-2.748e-05
-0.000688319
-8.81782e-05
-4.66329e-05
-0.000734489
-0.000294827
-7.62375e-05
-0.000641051
-0.000615416
-0.000107505
-0.00155922
-0.00016111
-1.90584e-05
0.000173749
-7.26867e-06
-5.00979e-05
0.00027411
-7.99421e-06
-8.09575e-05
0.000283921
-7.48647e-06
-0.00011054
0.000276935
-6.59449e-06
-0.00013811
0.000265981
-5.73465e-06
-0.000164311
0.000254736
-4.90894e-06
-0.000189843
0.000243822
-4.16295e-06
-0.000215646
0.000233813
-3.53292e-06
-0.000242904
0.000225136
-3.06756e-06
-0.000273208
0.000218142
-2.82911e-06
-0.000308869
0.000213147
-2.91654e-06
-0.00035332
0.000210264
-3.50721e-06
-0.000411488
0.000208856
-4.93587e-06
-0.000489996
0.000206493
-7.85152e-06
-0.000597062
0.000197467
-1.33759e-05
-0.000739082
0.000168528
-2.30176e-05
-0.000906027
8.22938e-05
-3.95067e-05
-0.000995427
-0.000202069
-5.59355e-05
-0.000808446
-0.000791094
-3.64012e-05
-0.00240382
-7.18359e-05
-2.40619e-05
0.000200168
-9.88346e-06
-5.83735e-05
0.000311475
-1.10919e-05
-9.10351e-05
0.000319408
-1.03004e-05
-0.000120407
0.000308725
-9.08016e-06
-0.000147705
0.000295301
-7.67151e-06
-0.000173625
0.000282243
-6.27556e-06
-0.000198824
0.000270165
-4.96341e-06
-0.000224019
0.000259708
-3.81894e-06
-0.000250348
0.000251727
-2.8909e-06
-0.000279618
0.000247234
-2.22446e-06
-0.000314664
0.000247542
-1.8717e-06
-0.000359908
0.000254297
-1.9092e-06
-0.000422333
0.000269367
-2.46465e-06
-0.000512059
0.000293533
-3.71354e-06
-0.000642964
0.000325064
-5.27079e-06
-0.000818289
0.000340926
-3.43225e-06
-0.00101406
0.000275851
1.13385e-05
-0.00107644
-0.000141336
7.17076e-05
-0.000705752
-0.0011151
0.000199426
-0.00309638
7.15689e-05
-1.96674e-05
0.000223058
-1.37532e-05
-6.12944e-05
0.00035765
-1.43252e-05
-9.9e-05
0.00036121
-1.29005e-05
-0.000134971
0.000348241
-1.0461e-05
-0.000164263
0.000327463
-8.39122e-06
-0.000189765
0.000309903
-6.3976e-06
-0.000212314
0.000294164
-4.62478e-06
-0.000233459
0.000281616
-3.03174e-06
-0.000254532
0.000272887
-1.6176e-06
-0.000277209
0.000269299
-3.45428e-07
-0.000303896
0.000272828
8.31597e-07
-0.000339194
0.000287186
2.1398e-06
-0.00039138
0.000317791
4.02838e-06
-0.000472489
0.000369182
7.96457e-06
-0.000603744
0.000448701
1.82143e-05
-0.000775579
0.000504819
4.96455e-05
-0.000964139
0.000459146
0.000131963
-0.00100851
-0.00010381
0.000296067
-0.000556642
-0.00149375
0.000423092
-0.00361914
-1.54287e-05
-5.87335e-05
0.000285314
-1.89785e-05
-9.51368e-05
0.000398676
-2.07705e-05
-0.000125965
0.000396325
-1.9124e-05
-0.000149677
0.000375473
-1.66376e-05
-0.000172313
0.000353092
-1.33044e-05
-0.000194366
0.000334229
-1.00488e-05
-0.000215657
0.000316969
-6.87826e-06
-0.000235832
0.00030249
-4.05977e-06
-0.000255025
0.000291916
-1.58657e-06
-0.000273542
0.000286699
5.73046e-07
-0.000292978
0.000289994
2.60968e-06
-0.000315615
0.000306021
4.98781e-06
-0.000349221
0.000345382
8.8754e-06
-0.000397349
0.000408889
1.82765e-05
-0.000487021
0.000525703
4.21788e-05
-0.000598855
0.000602061
0.000109191
-0.000721699
0.000569431
0.000253081
-0.000760759
-9.20583e-05
0.000470186
-0.00041428
-0.00178574
0.000422174
-0.00404182
-0.000215694
-1.76524e-06
0.000289898
-3.49358e-05
-8.10098e-05
0.000484373
-3.31791e-05
-0.000139202
0.000461488
-2.52514e-05
-0.000182365
0.000425156
-1.76909e-05
-0.000210768
0.000386934
-1.24428e-05
-0.000231473
0.000359025
-7.51763e-06
-0.000245765
0.000333968
-3.34547e-06
-0.000256472
0.000314606
3.97642e-07
-0.000262918
0.000298595
3.42235e-06
-0.000265879
0.000288585
6.28712e-06
-0.000262615
0.000284132
8.80039e-06
-0.000251929
0.00029075
1.22627e-05
-0.000235813
0.0003215
1.80791e-05
-0.000209352
0.000371788
3.30753e-05
-0.000192288
0.000492145
6.61218e-05
-0.000186522
0.000578673
0.00015442
-0.000215284
0.000582065
0.000318832
-0.000312897
-2.51864e-05
0.000499738
-9.47009e-05
-0.00195296
0.000281365
-0.00418259
-0.000289348
-5.8617e-05
0.00035399
-3.42739e-05
-6.36599e-05
0.000497198
-3.82977e-05
-9.93796e-05
0.000503399
-3.78387e-05
-0.000158474
0.000488085
-3.3904e-05
-0.000196811
0.000428992
-2.51351e-05
-0.000225503
0.000391061
-1.66189e-05
-0.000242831
0.000354003
-8.65477e-06
-0.000250136
0.000323623
-1.92218e-06
-0.000250292
0.000299188
3.54323e-06
-0.000240182
0.000277497
7.77864e-06
-0.000223147
0.000264294
1.10957e-05
-0.000189905
0.000252581
1.47384e-05
-0.000142191
0.000264522
1.85685e-05
-6.6847e-05
0.000283188
3.49037e-05
5.33667e-05
0.000353244
5.86994e-05
0.000190666
0.000421707
0.000140578
0.000428027
0.000336265
0.000225688
0.000484986
-9.5098e-05
0.000345541
0.000451306
-0.00186026
0.000122491
-0.00380151
-0.000344375
-0.000632215
0.000960509
-0.000102552
-0.000663914
0.000526876
-6.27313e-05
-0.000625777
0.000469444
-4.15319e-05
-0.000516572
0.000387369
-2.61856e-05
-0.000402438
0.000324269
-1.58766e-05
-0.000281362
0.000279405
-3.61474e-06
-0.000162798
0.000244624
5.49989e-06
-5.03748e-05
0.000219627
1.37491e-05
5.90533e-05
0.000196463
1.86173e-05
0.000161259
0.000180053
2.5289e-05
0.000262976
0.000165409
2.62972e-05
0.000361847
0.000153355
2.61758e-05
0.000477434
0.00014497
2.62018e-05
0.000604738
0.000147332
2.26865e-05
0.000813245
0.000132057
1.70185e-05
0.00108103
0.000140928
7.53176e-05
0.00143595
-2.39607e-05
4.51111e-05
0.00164391
-0.00028266
7.47676e-05
0.00124944
-0.00140192
6.14007e-05
-0.00270785
-0.000373566
0.000940208
-8.37419e-05
0.0014527
-8.59381e-05
0.00190911
-8.67966e-05
0.00228766
-8.3962e-05
0.00260848
-7.70034e-05
0.00288756
-7.02116e-05
0.00313553
-6.3695e-05
0.00335962
-5.25851e-05
0.00356233
-4.7364e-05
0.00375021
-3.60887e-05
0.00391972
-2.67639e-05
0.004083
-2.28968e-05
0.00422823
-4.30507e-06
0.00438157
-1.83426e-05
0.00451555
1.62608e-05
0.00465191
-2.37335e-05
0.00463864
3.18442e-05
0.00434976
-3.89594e-05
0.00295924
-1.63128e-05
-0.000412051
-5.77886e-06
5.83884e-06
-5.09678e-07
-1.55497e-05
9.98788e-06
-4.99408e-07
-2.59157e-05
1.0609e-05
-4.61428e-07
-3.60992e-05
1.04363e-05
-4.22675e-07
-4.58798e-05
1.00303e-05
-4.12349e-07
-5.50998e-05
9.46225e-06
-4.27947e-07
-6.35754e-05