/*--------------------------------*- C++ -*----------------------------------*\
  =========                 |
  \\      /  F ield         | OpenFOAM: The Open Source CFD Toolbox
   \\    /   O peration     | Website:  https://openfoam.org
    \\  /    A nd           | Version:  9
     \\/     M anipulation  |
\*---------------------------------------------------------------------------*/
FoamFile
{
    format      ascii;
    class       volVectorField;
    location    "6";
    object      U;
}
// * * * * * * * * * * * * * * * * * * * * * * * * * * * * * * * * * * * * * //

dimensions      [0 1 -1 0 0 0 0];

internalField   nonuniform List<vector> 
8000
(
(-0.000115952 0.000127289 -1.6993e-05)
(-0.00059734 0.000223564 6.40952e-06)
(-0.0012762 0.000240693 1.15594e-05)
(-0.00191455 0.000243146 1.45049e-05)
(-0.00255788 0.000242427 1.42781e-05)
(-0.00318271 0.000239567 1.21725e-05)
(-0.00377878 0.000233266 8.63575e-06)
(-0.00433303 0.000221735 3.48442e-06)
(-0.00482875 0.00020317 -3.26448e-06)
(-0.00524516 0.000175688 -1.16084e-05)
(-0.00555745 0.000137683 -2.1537e-05)
(-0.00573758 8.82105e-05 -3.31815e-05)
(-0.00575494 2.58176e-05 -4.66165e-05)
(-0.00557933 -5.07384e-05 -6.15631e-05)
(-0.00518513 -0.000137524 -7.70847e-05)
(-0.00455678 -0.00022953 -9.18574e-05)
(-0.00369117 -0.000318633 -0.000103391)
(-0.00264383 -0.000391137 -0.00010717)
(-0.00138172 -0.000420544 -0.00010199)
(-0.000337324 -0.000291747 -5.3933e-05)
(-0.000211949 0.000646374 -5.41308e-05)
(-0.000963861 0.00100959 -3.29098e-05)
(-0.00197296 0.0010672 -2.67443e-05)
(-0.00292131 0.00106118 -2.08916e-05)
(-0.0038647 0.00103658 -1.77992e-05)
(-0.00476889 0.000998227 -1.61586e-05)
(-0.0056176 0.000942982 -1.55795e-05)
(-0.00639178 0.000866171 -1.62043e-05)
(-0.00706844 0.000762695 -1.82773e-05)
(-0.00762022 0.000627181 -2.20812e-05)
(-0.00801512 0.000454284 -2.79428e-05)
(-0.00821905 0.000239109 -3.5998e-05)
(-0.00819662 -1.96977e-05 -4.71202e-05)
(-0.00790859 -0.000319151 -5.95079e-05)
(-0.00732191 -0.000649303 -7.32507e-05)
(-0.00641913 -0.000992298 -8.68278e-05)
(-0.00519788 -0.00131998 -9.72394e-05)
(-0.00373016 -0.00158393 -9.92814e-05)
(-0.00197533 -0.00168597 -9.21159e-05)
(-0.000498824 -0.0012178 -3.68295e-05)
(-0.000230728 0.00139043 -6.76722e-05)
(-0.0010471 0.00208939 -4.7132e-05)
(-0.00213956 0.0021933 -4.05624e-05)
(-0.00316446 0.00216814 -3.36328e-05)
(-0.004184 0.00210256 -2.9374e-05)
(-0.00516183 0.00200652 -2.64501e-05)
(-0.0060818 0.00187554 -2.45185e-05)
(-0.00692463 0.00170231 -2.37921e-05)
(-0.00766697 0.00147832 -2.46421e-05)
(-0.00828118 0.00119438 -2.74633e-05)
(-0.00873519 0.000841312 -3.25721e-05)
(-0.00899087 0.000411215 -4.05459e-05)
(-0.00900476 -9.82769e-05 -5.15702e-05)
(-0.00873225 -0.000683209 -6.51122e-05)
(-0.00813264 -0.00132652 -8.06648e-05)
(-0.00717692 -0.00199554 -9.66516e-05)
(-0.00585116 -0.00263685 -0.000109612)
(-0.00422761 -0.00315687 -0.000113201)
(-0.00225546 -0.00336229 -0.000106154)
(-0.00057451 -0.00247732 -4.4214e-05)
(-0.000233521 0.00211956 -7.94183e-05)
(-0.00107454 0.00316027 -5.98333e-05)
(-0.00220567 0.00331166 -5.31427e-05)
(-0.00326749 0.00327055 -4.55363e-05)
(-0.00432896 0.00316985 -4.05388e-05)
(-0.00535329 0.00302457 -3.68142e-05)
(-0.00632635 0.00282861 -3.40654e-05)
(-0.00723034 0.00257166 -3.25588e-05)
(-0.00804301 0.00224121 -3.27511e-05)
(-0.00873689 0.00182329 -3.51777e-05)
(-0.0092782 0.0013038 -4.03638e-05)
(-0.00962593 0.000671043 -4.89725e-05)
(-0.00973308 -8.22443e-05 -6.21768e-05)
(-0.00954171 -0.000954545 -7.82229e-05)
(-0.00899163 -0.00192655 -9.75178e-05)
(-0.00803392 -0.00295326 -0.000118088)
(-0.00663018 -0.00395597 -0.000135722)
(-0.00484652 -0.0047887 -0.000142823)
(-0.00261926 -0.00514156 -0.000136946)
(-0.000677402 -0.00382849 -6.57647e-05)
(-0.000234028 0.00288636 -8.99296e-05)
(-0.00109819 0.00429151 -7.0881e-05)
(-0.00226971 0.00449517 -6.41827e-05)
(-0.00337132 0.00444096 -5.61882e-05)
(-0.00447985 0.0043089 -5.08701e-05)
(-0.00555854 0.00411976 -4.68837e-05)
(-0.00659638 0.00386615 -4.39834e-05)
(-0.00757818 0.00353483 -4.25077e-05)
(-0.008484 0.00310904 -4.30108e-05)
(-0.00928774 0.00256905 -4.61881e-05)
(-0.00995509 0.00189345 -5.28039e-05)
(-0.0104412 0.00106171 -6.37002e-05)
(-0.0106897 5.82583e-05 -7.96887e-05)
(-0.0106296 -0.00111908 -0.000101409)
(-0.0101778 -0.00245721 -0.000127763)
(-0.00925138 -0.00390311 -0.000157161)
(-0.00777075 -0.00535325 -0.000184514)
(-0.00577712 -0.00660025 -0.000199386)
(-0.00318577 -0.00717712 -0.000196962)
(-0.000845962 -0.00541316 -0.000111921)
(-0.000234261 0.0036819 -0.00010144)
(-0.001126 0.00547614 -8.27608e-05)
(-0.00234622 0.00573847 -7.61214e-05)
(-0.00349555 0.0056759 -6.78327e-05)
(-0.00466035 0.00551925 -6.23581e-05)
(-0.00580404 0.00529606 -5.83469e-05)
(-0.00691985 0.00499807 -5.56173e-05)
(-0.00799653 0.0046094 -5.45991e-05)
(-0.00901811 0.00410883 -5.59715e-05)
(-0.00996175 0.00346986 -6.06109e-05)
(-0.0107945 0.00266163 -6.9555e-05)
(-0.0114695 0.00165136 -8.39765e-05)
(-0.0119215 0.000408899 -0.000104972)
(-0.012064 -0.00108463 -0.000136051)
(-0.0117827 -0.00282914 -0.000174259)
(-0.0109457 -0.00477386 -0.00021904)
(-0.00941006 -0.00679326 -0.000264483)
(-0.00715731 -0.0086112 -0.000295973)
(-0.00406644 -0.00954212 -0.000302698)
(-0.00112565 -0.0073308 -0.000200265)
(-0.000233835 0.00451107 -0.000115445)
(-0.00115734 0.00672389 -9.72556e-05)
(-0.00243403 0.00705228 -9.06863e-05)
(-0.00363744 0.00698654 -8.20096e-05)
(-0.00486544 0.00681301 -7.6298e-05)
(-0.00608169 0.00656736 -7.22214e-05)
(-0.00728494 0.00624142 -6.96958e-05)
(-0.00846953 0.00581732 -6.92789e-05)
(-0.00962583 0.00526967 -7.18322e-05)
(-0.0107374 0.00456472 -7.851e-05)
(-0.0117761 0.00365999 -9.07731e-05)
(-0.0126965 0.00250575 -0.00011031)
(-0.0134281 0.00104967 -0.000138745)
(-0.0138703 -0.000754143 -0.000184082)
(-0.0138712 -0.00293338 -0.000241486)
(-0.0132331 -0.00546301 -0.000312737)
(-0.0117197 -0.0082103 -0.000391884)
(-0.0091876 -0.0108322 -0.000459887)
(-0.00545129 -0.0123337 -0.000489979)
(-0.00160314 -0.00975191 -0.000378102)
(-0.000232121 0.00537982 -0.00013303)
(-0.00119069 0.00804608 -0.000115662)
(-0.00253019 0.00844795 -0.000109095)
(-0.00379128 0.00838337 -9.9755e-05)
(-0.00508574 0.00820006 -9.35002e-05)
(-0.00637721 0.00794393 -8.90726e-05)
(-0.00767138 0.00760836 -8.65372e-05)
(-0.00897002 0.00717503 -8.66298e-05)
(-0.0102727 0.0066157 -9.04669e-05)
(-0.0115737 0.00589018 -9.96175e-05)
(-0.012856 0.0049441 -0.000116255)
(-0.0140826 0.00370753 -0.000143327)
(-0.0151844 0.00209667 -0.000185386)
(-0.0160504 2.19138e-05 -0.000247051)
(-0.0164972 -0.00258893 -0.000335072)
(-0.0162474 -0.00578027 -0.00045153)
(-0.0149335 -0.00944526 -0.000593346)
(-0.0121775 -0.0131993 -0.000739665)
(-0.00769093 -0.0156042 -0.000831374)
(-0.00245919 -0.0129504 -0.000755693)
(-0.000228787 0.00629475 -0.000155455)
(-0.00122549 0.0094548 -0.000139471)
(-0.00263304 0.00993621 -0.000132702)
(-0.00395243 0.00987468 -0.000122166)
(-0.00531218 0.00968637 -0.000114748)
(-0.00667531 0.00943016 -0.000109352)
(-0.0080557 0.00910334 -0.000106261)
(-0.00946439 0.00868958 -0.000106445)
(-0.0109132 0.00816055 -0.000111348)
(-0.0124119 0.00747221 -0.000123077)
(-0.0139622 0.00656001 -0.000144726)
(-0.0155478 0.00533337 -0.000180811)
(-0.0171181 0.00367108 -0.000237903)
(-0.0185607 0.00142354 -0.000323383)
(-0.0196819 -0.00156549 -0.000463393)
(-0.0201258 -0.00542967 -0.000654942)
(-0.0193555 -0.0101849 -0.000910546)
(-0.0165834 -0.0154812 -0.00121761)
(-0.0114563 -0.0192729 -0.00146791)
(-0.00410998 -0.01737 -0.00160851)
(-0.000224099 0.00726508 -0.000184568)
(-0.00126342 0.010965 -0.000170783)
(-0.00274425 0.0115284 -0.000163357)
(-0.00411962 0.0114671 -0.000150669)
(-0.00553877 0.0112735 -0.000140971)
(-0.00696261 0.0110232 -0.00013348)
(-0.0084143 0.0107204 -0.000128791)
(-0.00991556 0.0103543 -0.000128174)
(-0.0114933 0.00990138 -0.000133479)
(-0.0131781 0.00931965 -0.000147509)
(-0.0149995 0.00854168 -0.000174661)
(-0.0169772 0.00746408 -0.000221916)
(-0.019101 0.00593367 -0.000299777)
(-0.0212952 0.00373305 -0.000423313)
(-0.0233654 0.000575921 -0.000619441)
(-0.0249253 -0.00383472 -0.000929298)
(-0.0253053 -0.00976451 -0.00138618)
(-0.0230508 -0.0170459 -0.00200898)
(-0.0180005 -0.0229286 -0.0026536)
(-0.00747687 -0.0235512 -0.00360683)
(-0.000219449 0.00830598 -0.000223439)
(-0.00131026 0.0125979 -0.000212886)
(-0.00287155 0.013238 -0.000203783)
(-0.00429784 0.0131664 -0.000187217)
(-0.00576582 0.0129584 -0.000173338)
(-0.00723124 0.0127117 -0.000161863)
(-0.00872733 0.0124403 -0.000153765)
(-0.0102865 0.0121434 -0.000150658)
(-0.0119516 0.011808 -0.000154803)
(-0.0137758 0.0114028 -0.000169659)
(-0.0158227 0.0108684 -0.000200821)
(-0.0181618 0.0101008 -0.000257678)
(-0.0208569 0.00892678 -0.000356145)
(-0.0239298 0.00707123 -0.000522453)
(-0.0272746 0.00411923 -0.000797204)
(-0.030569 -0.000483444 -0.00128059)
(-0.0330841 -0.00734348 -0.0020605)
(-0.0325066 -0.0167558 -0.00326056)
(-0.0293387 -0.0254061 -0.00469285)
(-0.0143559 -0.0321232 -0.00793528)
(-0.000218136 0.00944449 -0.000277696)
(-0.00137969 0.0143948 -0.000272409)
(-0.00303355 0.0150975 -0.000260121)
(-0.00450236 0.0150016 -0.00023706)
(-0.00600428 0.0147525 -0.000215135)
(-0.00748378 0.0144863 -0.000195816)
(-0.00898548 0.0142343 -0.000180945)
(-0.010551 0.0140118 -0.000172526)
(-0.0122376 0.0138234 -0.000173171)
(-0.0141221 0.0136603 -0.000187071)
(-0.0163074 0.0134925 -0.000221599)
(-0.0189273 0.0132498 -0.000289787)
(-0.0221436 0.0127857 -0.000413958)
(-0.0261256 0.0118167 -0.000632714)
(-0.0309755 0.00984062 -0.00100571)
(-0.0366032 0.00603636 -0.00160519)
(-0.0425229 -0.000729053 -0.0027316)
(-0.0455659 -0.011815 -0.0046683)
(-0.0476069 -0.023949 -0.00703979)
(-0.0273298 -0.0448318 -0.0140404)
(-0.000220002 0.01071 -0.000356306)
(-0.00148232 0.0162748 -0.000348075)
(-0.00324961 0.0169795 -0.000327105)
(-0.00475793 0.0167621 -0.000289038)
(-0.00629241 0.016452 -0.000256419)
(-0.00775224 0.0161832 -0.000227819)
(-0.00920425 0.0159776 -0.000204563)
(-0.0106995 0.0158495 -0.000188121)
(-0.0123048 0.0158213 -0.000181131)
(-0.0141077 0.0159198 -0.000187616)
(-0.0162325 0.0161662 -0.000214489)
(-0.0188654 0.0165568 -0.000274155)
(-0.0222851 0.0170303 -0.000388521)
(-0.0268779 0.0173888 -0.00059691)
(-0.0331233 0.017203 -0.000961582)
(-0.0415329 0.0154965 -0.001533)
(-0.0525554 0.0107828 -0.00257407)
(-0.0617492 -0.000871724 -0.00418838)
(-0.0729793 -0.0196528 -0.00333475)
(-0.0453031 -0.0736905 -0.0117566)
(-0.000354484 0.0122902 -0.000490552)
(-0.00182666 0.0190256 -0.000514696)
(-0.00367779 0.0196841 -0.000478421)
(-0.00516247 0.0195401 -0.000427234)
(-0.00659608 0.0190035 -0.000362803)
(-0.00796031 0.0185174 -0.000303394)
(-0.00931963 0.0181171 -0.000251313)
(-0.010707 0.0178843 -0.000211579)
(-0.0121668 0.0178872 -0.000187184)
(-0.0137775 0.0182004 -0.000181997)
(-0.0156721 0.0189138 -0.000202484)
(-0.0180668 0.0201372 -0.000258771)
(-0.0213188 0.0219761 -0.000364326)
(-0.0259777 0.0244406 -0.000526999)
(-0.0329974 0.0273593 -0.000716767)
(-0.0435486 0.0295651 -0.000597525)
(-0.060297 0.0290299 0.000273429)
(-0.0771411 0.014408 0.00340499)
(-0.100522 -0.0278074 0.0152174)
(-0.0551983 -0.145966 0.00337208)
(-3.87172e-05 0.014374 -0.000691336)
(-0.00169694 0.0205285 -0.000616596)
(-0.00398029 0.0209179 -0.000554443)
(-0.00555447 0.0200095 -0.00042991)
(-0.00731413 0.0193722 -0.000341474)
(-0.00862695 0.0189454 -0.000263446)
(-0.00982547 0.0187353 -0.000201276)
(-0.0109169 0.0187238 -0.000151187)
(-0.0119741 0.0189567 -0.000113769)
(-0.0130627 0.0195226 -8.93984e-05)
(-0.0142706 0.0205825 -8.10974e-05)
(-0.0157646 0.0223665 -8.47973e-05)
(-0.0179132 0.025237 -7.89678e-05)
(-0.0213571 0.0293848 3.48924e-05)
(-0.0277687 0.0354803 0.000518492)
(-0.0389879 0.0414029 0.00254034)
(-0.0627379 0.0445843 0.00800929)
(-0.0897811 0.017526 0.018389)
(-0.120244 -0.0780537 0.0336146)
(-0.0417094 -0.255988 0.000679667)
(-0.00197439 0.0154912 -0.00106333)
(-0.00447269 0.0264735 -0.00109778)
(-0.00570043 0.0262992 -0.000994242)
(-0.00690133 0.0262669 -0.000874756)
(-0.00769793 0.0246499 -0.000678514)
(-0.00861442 0.0234706 -0.000507727)
(-0.00954498 0.022371 -0.000350012)
(-0.0104782 0.0216258 -0.000224343)
(-0.0113498 0.0212938 -0.000129883)
(-0.0121221 0.0215086 -6.72724e-05)
(-0.0127825 0.0224561 -3.16507e-05)
(-0.0133352 0.0245229 -6.68984e-06)
(-0.0141595 0.0283843 5.90924e-05)
(-0.0153278 0.0342427 0.000462844)
(-0.0198506 0.0449719 0.001661)
(-0.0282467 0.0546287 0.00599312)
(-0.0556425 0.0606648 0.0160111)
(-0.0849498 0.00644358 0.0291723)
(-0.115147 -0.159719 0.0302658)
(-0.0299363 -0.328887 -0.0261557)
(0.00220516 0.0258402 -0.00228146)
(-0.000440448 0.0251664 -0.00181286)
(-0.00585621 0.0246998 -0.001194)
(-0.00726176 0.0217744 -0.000671015)
(-0.00999988 0.0207209 -0.000382774)
(-0.0107519 0.0200099 -0.000136847)
(-0.0115211 0.0196615 4.80576e-05)
(-0.011831 0.0194733 0.00019331)
(-0.0118971 0.0195188 0.000289286)
(-0.0116621 0.0198367 0.000363422)
(-0.0109786 0.0207518 0.000393057)
(-0.00953252 0.022358 0.000443287)
(-0.00788509 0.0261008 0.000555351)
(-0.00382533 0.0309958 0.00128574)
(-0.00377519 0.0424385 0.0030093)
(-0.00121883 0.0521993 0.0090143)
(-0.0226046 0.0546931 0.0209811)
(-0.0496861 -0.0238796 0.0310748)
(-0.0863865 -0.218669 0.017998)
(-0.0323505 -0.371352 -0.0394089)
(-0.00579755 0.0163538 -0.00199383)
(-0.0117783 0.0437785 -0.00212137)
(-0.00685086 0.0387377 -0.00218822)
(-0.0101654 0.037345 -0.00208019)
(-0.00996751 0.0324889 -0.00143362)
(-0.0103694 0.029335 -0.00083217)
(-0.0103082 0.0262983 -0.000309298)
(-0.0100802 0.0241755 8.32462e-05)
(-0.00957437 0.0225131 0.000367427)
(-0.00858231 0.0214556 0.000530157)
(-0.00720808 0.0208042 0.000588419)
(-0.00431404 0.0210354 0.000621063)
(-0.00163 0.022977 0.000479972)
(0.00612277 0.0260428 0.00122813)
(0.0103624 0.0370394 0.00242093)
(0.026625 0.0459173 0.00805915)
(0.0213256 0.0548529 0.0162119)
(0.0356339 -0.0272007 0.0234406)
(-0.0248655 -0.222939 0.0104643)
(-0.00924938 -0.387643 -0.0436577)
(-0.050575 0.0579646 -0.0104911)
(-0.0292028 0.0250775 -0.0052321)
(-0.0370556 0.0264646 -0.00288817)
(-0.0211976 0.024429 -0.00119587)
(-0.0140806 0.02063 -0.000266478)
(-0.00289503 0.0184373 0.000678763)
(0.00540129 0.0169076 0.00136028)
(0.0136318 0.015512 0.00189767)
(0.0205264 0.0146706 0.00208065)
(0.027096 0.0135239 0.00237419)
(0.0327988 0.0133127 0.00224917)
(0.0398982 0.012326 0.00193853)
(0.0440917 0.0129169 0.00160771)
(0.0589988 0.0125502 0.000865071)
(0.0604088 0.0135169 0.000122428)
(0.0997078 0.0101812 0.00394362)
(0.0869507 -0.000699637 0.00307271)
(0.15772 -0.052882 0.00916458)
(0.0725639 -0.204677 0.00985973)
(0.0449402 -0.342108 -0.0514696)
(0.0893386 0.102801 -0.00855881)
(0.113179 0.055426 -0.00813715)
(0.167501 0.0390446 -0.00806959)
(0.205569 0.0266079 -0.00747101)
(0.233269 0.0191817 -0.00638666)
(0.259152 0.013708 -0.0055326)
(0.277202 0.0102456 -0.00456916)
(0.297915 0.00814763 -0.00359288)
(0.308068 0.00632511 -0.00298243)
(0.327845 0.0057861 -0.00177205)
(0.329436 0.00448593 -0.00169897)
(0.353219 0.00476672 -0.000268576)
(0.34317 0.00381525 -0.000477348)
(0.376618 0.00355943 -0.000379262)
(0.351977 0.00388828 0.00155421)
(0.396992 -0.000153995 -0.00231264)
(0.351242 -0.00446374 0.00365694)
(0.385852 -0.0266088 -0.00311568)
(0.257524 -0.0689926 -0.000633845)
(0.145281 -0.121491 -0.0614969)
(-0.00018581 0.000189138 -4.00275e-05)
(-0.000928219 0.000353189 -1.11437e-05)
(-0.00195908 0.00038037 -3.24591e-06)
(-0.00291488 0.000378733 1.97604e-06)
(-0.00386092 0.00036999 2.24082e-06)
(-0.00476363 0.000356588 -7.29993e-07)
(-0.00560786 0.000337048 -6.3986e-06)
(-0.00637471 0.000309435 -1.49664e-05)
(-0.00704091 0.000271522 -2.66528e-05)
(-0.00757923 0.00022102 -4.1727e-05)
(-0.00795856 0.000156012 -6.04231e-05)
(-0.00814483 7.57506e-05 -8.29198e-05)
(-0.00810161 -2.17449e-05 -0.000109104)
(-0.00779365 -0.000135368 -0.000138219)
(-0.00719261 -0.000260806 -0.000168477)
(-0.00628275 -0.000390998 -0.000197298)
(-0.00506339 -0.000514667 -0.00022031)
(-0.00360639 -0.000611907 -0.000230238)
(-0.00186199 -0.000637739 -0.000224756)
(-0.000443605 -0.00041081 -0.000146711)
(-0.000362363 0.000958582 -9.7582e-05)
(-0.00158585 0.00156997 -7.27496e-05)
(-0.00319349 0.00166023 -6.28821e-05)
(-0.00468687 0.00163243 -5.28004e-05)
(-0.00614542 0.00156886 -4.73687e-05)
(-0.00751735 0.00147975 -4.47907e-05)
(-0.00877684 0.00136206 -4.46337e-05)
(-0.00989513 0.00121079 -4.72186e-05)
(-0.0108394 0.00102022 -5.30692e-05)
(-0.0115729 0.000784429 -6.27923e-05)
(-0.0120547 0.000497884 -7.70105e-05)
(-0.0122436 0.000156058 -9.59679e-05)
(-0.0120958 -0.000240467 -0.000120773)
(-0.011567 -0.000685133 -0.000148626)
(-0.0106237 -0.00116344 -0.000178919)
(-0.00924941 -0.00165028 -0.000208622)
(-0.0074481 -0.00210632 -0.000232352)
(-0.00531601 -0.00246049 -0.000241505)
(-0.00279398 -0.00254867 -0.0002338)
(-0.000698134 -0.00172804 -0.000141898)
(-0.000403832 0.0020612 -0.000120618)
(-0.00175515 0.0032309 -9.78994e-05)
(-0.00352139 0.00339259 -8.73376e-05)
(-0.00515914 0.00331959 -7.53774e-05)
(-0.00675696 0.00317139 -6.79422e-05)
(-0.00825905 0.00296841 -6.32305e-05)
(-0.00963887 0.00270698 -6.09239e-05)
(-0.0108668 0.00237952 -6.15063e-05)
(-0.0119091 0.00197707 -6.57214e-05)
(-0.0127283 0.00149014 -7.43816e-05)
(-0.013283 0.000909787 -8.81945e-05)
(-0.0135261 0.000229137 -0.000108105)
(-0.0134055 -0.000550987 -0.000134276)
(-0.0128706 -0.00142077 -0.000165729)
(-0.0118778 -0.00235411 -0.000201118)
(-0.0103979 -0.00330442 -0.000237203)
(-0.00842128 -0.0041969 -0.000267674)
(-0.00604568 -0.00489455 -0.000281865)
(-0.003199 -0.00507765 -0.000276226)
(-0.000806109 -0.0035257 -0.000172535)
(-0.000417037 0.00314021 -0.000142106)
(-0.00182583 0.00487773 -0.000122032)
(-0.0036719 0.00511185 -0.000111209)
(-0.00538397 0.00499712 -9.79783e-05)
(-0.00706027 0.00477142 -8.9166e-05)
(-0.00864385 0.00446511 -8.29995e-05)
(-0.0101103 0.00407341 -7.92865e-05)
(-0.0114316 0.00358575 -7.86768e-05)
(-0.0125751 0.002989 -8.21306e-05)
(-0.013503 0.00226862 -9.07501e-05)
(-0.0141716 0.0014105 -0.000105637)
(-0.0145304 0.00040443 -0.000128039)
(-0.0145201 -0.000753551 -0.000159734)
(-0.0140733 -0.00205557 -0.000198269)
(-0.0131233 -0.00346871 -0.000243479)
(-0.0116149 -0.00492831 -0.000291434)
(-0.00950955 -0.00632318 -0.000334383)
(-0.00689776 -0.00743879 -0.000359099)
(-0.00369079 -0.00776895 -0.000358973)
(-0.000941509 -0.00545202 -0.000238211)
(-0.000428443 0.00427454 -0.000162832)
(-0.00189548 0.00661557 -0.000145011)
(-0.00382702 0.00692813 -0.000134072)
(-0.00562048 0.00677386 -0.000119921)
(-0.00738539 0.00647361 -0.000110294)
(-0.0090643 0.00606861 -0.000103444)
(-0.0106365 0.00555334 -9.93199e-05)
(-0.0120768 0.00491415 -9.87673e-05)
(-0.0133552 0.00413319 -0.000103019)
(-0.014435 0.0031894 -0.000113573)
(-0.015271 0.00206033 -0.000132074)
(-0.0158062 0.000725832 -0.000160308)
(-0.015971 -0.000825966 -0.000199923)
(-0.0156789 -0.00259448 -0.00025175)
(-0.0148316 -0.00454796 -0.000314214)
(-0.0133328 -0.00660931 -0.000383729)
(-0.0110918 -0.00863 -0.000450755)
(-0.00816899 -0.0103016 -0.000496673)
(-0.00445063 -0.0108707 -0.000508748)
(-0.00116136 -0.00772175 -0.000362351)
(-0.000442625 0.00545751 -0.000186252)
(-0.00198138 0.00844229 -0.000170718)
(-0.00401813 0.00884124 -0.000159704)
(-0.00591146 0.00865142 -0.000144651)
(-0.00778461 0.00828268 -0.000134337)
(-0.00957983 0.00778843 -0.000127051)
(-0.0112815 0.00716289 -0.000122927)
(-0.0128692 0.00638954 -0.000123055)
(-0.0143173 0.00544527 -0.000129004)
(-0.0155929 0.0043008 -0.000142764)
(-0.0166511 0.00292215 -0.000166685)
(-0.0174313 0.00127422 -0.00020346)
(-0.0178534 -0.000672735 -0.000255868)
(-0.0178068 -0.00293853 -0.00032864)
(-0.0171507 -0.00550402 -0.00041891)
(-0.0157291 -0.00829165 -0.000524587)
(-0.0133689 -0.0111177 -0.000634477)
(-0.0100557 -0.0135652 -0.000722151)
(-0.00563417 -0.014535 -0.000760924)
(-0.00152761 -0.0105111 -0.000582752)
(-0.000459702 0.00670038 -0.000214994)
(-0.0020849 0.0103775 -0.000202283)
(-0.00424754 0.0108718 -0.000191094)
(-0.00625855 0.0106503 -0.000174792)
(-0.00825787 0.0102196 -0.000163444)
(-0.0101875 0.00964706 -0.000155426)
(-0.0120386 0.00892775 -0.000151132)
(-0.0137979 0.00804293 -0.000151982)
(-0.0154475 0.00696417 -0.00016001)
(-0.0169618 0.00565267 -0.000177895)
(-0.0183012 0.00405923 -0.000209035)
(-0.0194046 0.00212664 -0.000257588)
(-0.0201872 -0.000204712 -0.000328276)
(-0.0205141 -0.00298055 -0.000431606)
(-0.0201928 -0.00622739 -0.000565007)
(-0.0189853 -0.00989169 -0.000730267)
(-0.0165967 -0.0137725 -0.000916096)
(-0.0128484 -0.0173387 -0.0010877)
(-0.00752008 -0.0189949 -0.00118536)
(-0.00216845 -0.0141488 -0.000985707)
(-0.000479347 0.00801539 -0.000251318)
(-0.00220567 0.0124424 -0.000242377)
(-0.00451424 0.0130407 -0.000230708)
(-0.00665812 0.0127897 -0.000212401)
(-0.00879751 0.0123022 -0.000199168)
(-0.010874 0.0116623 -0.000189562)
(-0.0128878 0.0108677 -0.000184337)
(-0.0148352 0.00989916 -0.000185347)
(-0.0167104 0.0087241 -0.000195238)
(-0.0185009 0.00729435 -0.000217642)
(-0.0201805 0.00554377 -0.000257487)
(-0.0216988 0.00338727 -0.000321252)
(-0.0229643 0.000723313 -0.000417744)
(-0.0238341 -0.0025467 -0.000560964)
(-0.0240731 -0.00652638 -0.000760013)
(-0.023331 -0.0112321 -0.00102195)
(-0.0211463 -0.0164953 -0.00134138)
(-0.0170258 -0.0216933 -0.00167979)
(-0.0106663 -0.0245168 -0.00191348)
(-0.00337385 -0.019255 -0.00176174)
(-0.000501723 0.00941507 -0.000298017)
(-0.00234481 0.0146586 -0.000294245)
(-0.00481912 0.0153674 -0.000281452)
(-0.00710805 0.0150852 -0.000259799)
(-0.00939636 0.0145426 -0.000243128)
(-0.0116246 0.0138442 -0.000230314)
(-0.0138043 0.0129931 -0.000222599)
(-0.0159445 0.0119724 -0.00022237)
(-0.0180558 0.0107483 -0.000233011)
(-0.020146 0.00926526 -0.000259337)
(-0.0222126 0.00744056 -0.000308276)
(-0.0242299 0.0051578 -0.000389801)
(-0.0261265 0.00226327 -0.000518467)
(-0.0277706 -0.00143152 -0.000712736)
(-0.0288956 -0.00612633 -0.00101117)
(-0.0290421 -0.0119955 -0.00142437)
(-0.0275469 -0.0190176 -0.00197318)
(-0.023375 -0.0265597 -0.00263193)
(-0.0162717 -0.0313508 -0.00318015)
(-0.00590024 -0.027119 -0.00337158)
(-0.000527917 0.0109145 -0.000359157)
(-0.00250654 0.0170502 -0.000362467)
(-0.00516774 0.017871 -0.000347321)
(-0.00761089 0.0175495 -0.000320062)
(-0.0100512 0.016947 -0.000297329)
(-0.0124268 0.0161935 -0.000278565)
(-0.0147627 0.0153016 -0.000265666)
(-0.0170837 0.0142613 -0.000261635)
(-0.0194218 0.0130427 -0.000270687)
(-0.0218136 0.0115894 -0.000299026)
(-0.0242938 0.009809 -0.000356123)
(-0.026883 0.0075597 -0.000456619)
(-0.0295619 0.00463279 -0.000622183)
(-0.0322351 0.000732821 -0.000883069)
(-0.0346678 -0.00450766 -0.00129785)
(-0.0363717 -0.0115418 -0.00193719)
(-0.0364917 -0.0206782 -0.00287044)
(-0.0332181 -0.0314685 -0.00412739)
(-0.026894 -0.0395222 -0.00540926)
(-0.0117483 -0.040297 -0.00691137)
(-0.000560579 0.0125348 -0.000441206)
(-0.00270049 0.0196468 -0.000453978)
(-0.00557359 0.0205699 -0.000434082)
(-0.00817735 0.0201897 -0.000397383)
(-0.0107665 0.0195123 -0.000364358)
(-0.0132739 0.0186982 -0.0003353)
(-0.0157402 0.0177739 -0.000312874)
(-0.0182076 0.0167413 -0.000300719)
(-0.0207324 0.0155818 -0.000303764)
(-0.0233849 0.0142471 -0.000329343)
(-0.0262481 0.012646 -0.000389055)
(-0.0294127 0.0106214 -0.000501993)
(-0.0329621 0.00791776 -0.000700019)
(-0.0369267 0.00413578 -0.00103568)
(-0.0412269 -0.00130756 -0.00159021)
(-0.045499 -0.00914984 -0.00254222)
(-0.0488724 -0.0203354 -0.00406574)
(-0.048664 -0.0350045 -0.0063589)
(-0.0468428 -0.0482543 -0.00904717)
(-0.0249526 -0.0641627 -0.013994)
(-0.000605964 0.0143092 -0.000555279)
(-0.00294874 0.0225127 -0.000581819)
(-0.00606582 0.0235198 -0.000553706)
(-0.00883114 0.0230607 -0.000501917)
(-0.0115579 0.0222666 -0.00045073)
(-0.0141694 0.0213569 -0.000403331)
(-0.0167237 0.0203828 -0.000363986)
(-0.0192802 0.0193678 -0.000337028)
(-0.0219209 0.0183133 -0.000327817)
(-0.0247552 0.0171945 -0.000344625)
(-0.0279274 0.0159478 -0.000401591)
(-0.0316225 0.0144429 -0.000523295)
(-0.0360652 0.0124293 -0.000751947)
(-0.0414976 0.00945096 -0.00116106)
(-0.0480915 0.00474224 -0.00187059)
(-0.056035 -0.00280289 -0.00304994)
(-0.0650259 -0.0148614 -0.00519441)
(-0.0713401 -0.0332593 -0.00860557)
(-0.0786569 -0.054954 -0.0122642)
(-0.0444509 -0.111416 -0.0206813)
(-0.000652554 0.0162601 -0.000718061)
(-0.00324477 0.0254733 -0.000746069)
(-0.00666308 0.0264818 -0.000699431)
(-0.00960664 0.0258026 -0.00061667)
(-0.0124855 0.024885 -0.000541152)
(-0.0151615 0.023919 -0.00047092)
(-0.0177325 0.0229481 -0.000409794)
(-0.0202796 0.021994 -0.000361107)
(-0.022907 0.0210809 -0.000329825)
(-0.0257491 0.0202247 -0.000323292)
(-0.0289938 0.0194165 -0.000353951)
(-0.0329195 0.0185947 -0.00044421)
(-0.03794 0.0175927 -0.000635213)
(-0.044631 0.0160341 -0.00100372)
(-0.0537121 0.0132089 -0.00167566)
(-0.0662508 0.00785881 -0.00278198)
(-0.0829106 -0.00240817 -0.00459574)
(-0.0954659 -0.0249005 -0.00625419)
(-0.109871 -0.0670576 -0.00236751)
(-0.0440011 -0.198151 -0.00900057)
(-0.00092424 0.0185938 -0.00098005)
(-0.00396278 0.0297423 -0.00106493)
(-0.00760681 0.0306926 -0.000989366)
(-0.0106328 0.0300718 -0.000878956)
(-0.0134623 0.02876 -0.000744265)
(-0.0161127 0.027418 -0.000614809)
(-0.0186523 0.0261161 -0.000496268)
(-0.0211496 0.0249708 -0.000398123)
(-0.0236926 0.0240622 -0.000325707)
(-0.0264243 0.0234649 -0.000285289)
(-0.029566 0.0232537 -0.000286517)
(-0.0334605 0.0235056 -0.000344877)
(-0.0386536 0.0242527 -0.000483541)
(-0.0459762 0.0253798 -0.000722826)
(-0.0566142 0.0264376 -0.00101157)
(-0.0721614 0.0258336 -0.000797705)
(-0.0938509 0.0186282 0.00131706)
(-0.104354 -0.0156137 0.0097996)
(-0.120002 -0.0946796 0.0306243)
(-0.012094 -0.285009 0.0120448)
(-0.000391605 0.0215431 -0.00136694)
(-0.00368616 0.0318896 -0.00132452)
(-0.00833372 0.0325113 -0.00119032)
(-0.011688 0.0307989 -0.000948942)
(-0.015128 0.0294676 -0.000761313)
(-0.0177792 0.0282583 -0.000584762)
(-0.0201554 0.0272468 -0.000433188)
(-0.0223089 0.0264054 -0.000300946)
(-0.0243852 0.0258041 -0.000189586)
(-0.0265223 0.0255482 -9.87012e-05)
(-0.0289036 0.0258182 -2.87212e-05)
(-0.0318435 0.0268549 3.42182e-05)
(-0.035932 0.0290089 0.000133756)
(-0.0421701 0.0325067 0.000439288)
(-0.0522055 0.0375392 0.00148969)
(-0.067333 0.0409965 0.00537634)
(-0.0912009 0.0350571 0.0160608)
(-0.096985 -0.0138235 0.0371419)
(-0.113758 -0.129217 0.0601075)
(0.0107429 -0.339448 0.00188482)
(-0.00339269 0.022431 -0.00194882)
(-0.00815146 0.0406354 -0.00207116)
(-0.0110153 0.0407338 -0.00191491)
(-0.0139662 0.0402209 -0.00168921)
(-0.0160946 0.0373045 -0.00133637)
(-0.0184024 0.0349181 -0.00100938)
(-0.0205438 0.0326217 -0.000695166)
(-0.0226091 0.0307921 -0.000428546)
(-0.0245484 0.0294878 -0.000208231)
(-0.0263911 0.0288934 -3.50016e-05)
(-0.0282144 0.0292142 0.000105614)
(-0.0301689 0.0309737 0.000254187)
(-0.0327387 0.0349121 0.00053075)
(-0.0363977 0.0415592 0.00144432)
(-0.0433263 0.0525889 0.00404783)
(-0.0520175 0.0601395 0.0122233)
(-0.0715534 0.0567495 0.0301946)
(-0.0686277 -0.00634567 0.0562829)
(-0.092232 -0.168192 0.0592288)
(0.0172903 -0.393311 -0.0224959)
(0.00235455 0.0363377 -0.00392164)
(-0.00280724 0.0377798 -0.00339994)
(-0.0128035 0.0371966 -0.00239432)
(-0.0156292 0.0328605 -0.00154537)
(-0.0203104 0.0314419 -0.0010341)
(-0.0221199 0.0301636 -0.000566566)
(-0.0239762 0.0292303 -0.000184636)
(-0.0251743 0.0283704 0.000149035)
(-0.0260234 0.027762 0.000417021)
(-0.026503 0.0274576 0.000651828)
(-0.0264735 0.0279128 0.000823448)
(-0.0257195 0.0293569 0.00106886)
(-0.024609 0.0332107 0.00152371)
(-0.0214883 0.0391547 0.00310049)
(-0.0213108 0.0507137 0.00673626)
(-0.0152061 0.0582525 0.0174836)
(-0.0244169 0.0537865 0.0376253)
(-0.017161 -0.0141708 0.059238)
(-0.0522422 -0.19995 0.0431502)
(0.0382481 -0.429136 -0.0319512)
(-0.00241362 0.0186165 -0.00358217)
(-0.00847352 0.0611476 -0.003901)
(-0.00491714 0.0569518 -0.00401103)
(-0.014373 0.0550823 -0.00375696)
(-0.0177916 0.0485541 -0.00271589)
(-0.0216179 0.0440804 -0.00173417)
(-0.0236789 0.0396601 -0.000833729)
(-0.0248807 0.0363765 -0.00011991)
(-0.025212 0.0334957 0.000442606)
(-0.0246488 0.031597 0.000828403)
(-0.0234173 0.0300659 0.00107713)
(-0.0206942 0.029856 0.00132643)
(-0.0177219 0.0321295 0.00145919)
(-0.00983192 0.0362537 0.00317434)
(-0.00398365 0.049426 0.00572498)
(0.0154091 0.0593525 0.0155932)
(0.0207438 0.065846 0.0263858)
(0.0640585 0.00993561 0.0408235)
(0.0238477 -0.191643 0.0228878)
(0.0789817 -0.413981 -0.041809)
(-0.0756102 0.0582407 -0.0138957)
(-0.0552294 0.0350133 -0.00713167)
(-0.0737609 0.0407008 -0.00426303)
(-0.0537358 0.0384064 -0.00220548)
(-0.0478953 0.0336871 -0.000974523)
(-0.0334676 0.0308427 0.000436286)
(-0.0222441 0.0283604 0.00147148)
(-0.0106345 0.0259142 0.00238172)
(0.000705589 0.0243042 0.00281684)
(0.01103 0.0221155 0.00345998)
(0.0212095 0.0212898 0.00340478)
(0.032039 0.0194135 0.00312471)
(0.0394527 0.0196479 0.00285387)
(0.0577715 0.0197849 0.00203006)
(0.0618073 0.0199347 0.000877271)
(0.10344 0.0226389 0.00813951)
(0.107027 -0.00229561 0.00469935)
(0.174545 -0.031777 0.0088079)
(0.136982 -0.195877 0.0135225)
(0.137682 -0.371047 -0.0509677)
(0.0848198 0.122103 -0.011464)
(0.113617 0.0738702 -0.0111773)
(0.168249 0.0563846 -0.0111294)
(0.212903 0.0427173 -0.0104897)
(0.244085 0.0342354 -0.00927914)
(0.277785 0.0277963 -0.00824115)
(0.298816 0.022865 -0.00725392)
(0.329016 0.0200356 -0.00583194)
(0.341819 0.0166675 -0.00512677)
(0.372185 0.01541 -0.00376408)
(0.376104 0.0130595 -0.00274622)
(0.410142 0.0123494 -0.00226507)
(0.40467 0.0103834 -0.000243224)
(0.442798 0.010468 -0.00212536)
(0.430369 0.00778856 0.00233793)
(0.468777 0.00776485 -0.00349046)
(0.44705 -0.000958605 0.00489741)
(0.467805 -0.0166607 -0.00544609)
(0.376868 -0.0592485 0.00016028)
(0.260189 -0.127031 -0.0614985)
(-0.000197155 0.000195005 -4.90494e-05)
(-0.000990189 0.000373042 -4.34723e-05)
(-0.00209142 0.000402341 -3.87519e-05)
(-0.0031085 0.000399892 -3.44174e-05)
(-0.0041121 0.00038941 -3.32989e-05)
(-0.00506614 0.000373745 -3.48675e-05)
(-0.00595471 0.00035141 -3.90611e-05)