/*--------------------------------*- C++ -*----------------------------------*\
  =========                 |
  \\      /  F ield         | OpenFOAM: The Open Source CFD Toolbox
   \\    /   O peration     | Website:  https://openfoam.org
    \\  /    A nd           | Version:  9
     \\/     M anipulation  |
\*---------------------------------------------------------------------------*/
FoamFile
{
    format      ascii;
    class       volScalarField;
    location    "9";
    object      p;
}
// * * * * * * * * * * * * * * * * * * * * * * * * * * * * * * * * * * * * * //

dimensions      [0 2 -2 0 0 0 0];

internalField   nonuniform List<scalar> 
400
(
-7.37478e-09
3.67898e-07
5.61901e-05
0.000149246
0.000286696
0.000471437
0.000708306
0.00100303
0.00136184
0.00179088
0.00229508
0.00287702
0.0035346
0.0042579
0.00502555
0.00579918
0.00652309
0.00711468
0.00752493
0.00761617
4.01246e-07
4.23386e-07
5.72568e-05
0.000148833
0.000283318
0.000463703
0.000694925
0.000982773
0.00133366
0.00175418
0.00225021
0.0028257
0.0034797
0.00420439
0.00498304
0.00577803
0.00653286
0.00715884
0.00759937
0.00769689
-6.5822e-05
-6.90402e-05
-1.52088e-05
7.11159e-05
0.000198567
0.000370125
0.000590975
0.000867367
0.00120655
0.00161654
0.0021054
0.00268002
0.0033449
0.00409791
0.00492581
0.00579421
0.00664289
0.00736791
0.00788837
0.00800932
-0.000179107
-0.000185108
-0.000136109
-5.78897e-05
5.85778e-05
0.000216289
0.000420756
0.000678825
0.000998877
0.00139093
0.00186644
0.00243745
0.00311426
0.00390138
0.00480123
0.00578188
0.00678296
0.00768402
0.0083529
0.00853353
-0.000342267
-0.000351554
-0.000309437
-0.000242312
-0.000140913
-2.34352e-06
0.000179124
0.000410938
0.000702653
0.00106646
0.00151763
0.00207468
0.00275853
0.00358927
0.00456796
0.00569564
0.0069155
0.00809138
0.009018
0.00933081
-0.000551619
-0.00056486
-0.000531595
-0.000478653
-0.000396718
-0.0002832
-0.000132499
6.29611e-05
0.0003135
0.000632989
0.00104004
0.00155924
0.00222207
0.00306453
0.00411843
0.0054112
0.00691564
0.00850541
0.0098768
0.0104676
-0.000802042
-0.000819889
-0.000797324
-0.00076163
-0.000703708
-0.000621617
-0.000510448
-0.00036336
-0.00017053
8.22167e-05
0.000415065
0.0008568
0.00144838
0.00224628
0.00331951
0.00472283
0.0065226
0.00868116
0.0108305
0.0118559
-0.00108758
-0.00111061
-0.00110031
-0.0010846
-0.00105494
-0.00101051
-0.000947892
-0.000862097
-0.000745635
-0.000587068
-0.000368679
-6.29602e-05
0.000372631
0.00100276
0.00192088
0.00324751
0.00515238
0.00790114
0.0112353
0.0128665
-0.00140129
-0.0014299
-0.00143291
-0.00143915
-0.00144107
-0.00143951
-0.00143349
-0.00142134
-0.00140011
-0.00136475
-0.00130652
-0.00121051
-0.00105111
-0.000785125
-0.000352616
0.000332244
0.0015718
0.0041797
0.00850482
0.0110336
-0.00173539
-0.00176959
-0.00178587
-0.0018146
-0.00184959
-0.00189383
-0.00194968
-0.00202008
-0.00210892
-0.00222144
-0.00236491
-0.00255022
-0.00279496
-0.00313291
-0.003657
-0.00450521
-0.00554963
-0.00403267
0.000473664
0.00469905
-0.00208237
-0.00212262
-0.00215145
-0.00220205
-0.00226892
-0.00235829
-0.00247658
-0.00263246
-0.00283878
-0.0031152
-0.00349246
-0.00402109
-0.00478986
-0.00595186
-0.0078504
-0.010916
-0.0154965
-0.0155016
-0.0117726
-0.00514784
-0.00243237
-0.00247601
-0.00251231
-0.00257931
-0.00267333
-0.00280354
-0.00297886
-0.00321345
-0.00352853
-0.00395717
-0.00455354
-0.00540753
-0.00669717
-0.00867778
-0.0120151
-0.0169902
-0.0250698
-0.0265155
-0.0242204
-0.0156781
-0.002788
-0.00284266
-0.00288445
-0.00296998
-0.00308258
-0.0032419
-0.00345817
-0.00375162
-0.0041502
-0.00469731
-0.00546485
-0.00655729
-0.00824212
-0.0107242
-0.0151701
-0.0207303
-0.0310428
-0.032728
-0.0314296
-0.0229787
-0.00312152
-0.00316514
-0.00319377
-0.00326356
-0.00338059
-0.00355881
-0.00380994
-0.00415054
-0.00460743
-0.00522254
-0.00607523
-0.00723801
-0.00907906
-0.0114848
-0.0164674
-0.0214784
-0.0309185
-0.032223
-0.0320252
-0.0240134
-0.0034555
-0.00356006
-0.00357341
-0.00369008
-0.00379443
-0.00396794
-0.00420133
-0.00452818
-0.00497406
-0.00557638
-0.00641572
-0.00748308
-0.00922052
-0.011329
-0.0153815
-0.0193629
-0.0261389
-0.0265203
-0.0273234
-0.019096
-0.00390656
-0.00382879
-0.0037835
-0.00373196
-0.00380213
-0.00396272
-0.00421856
-0.00457259
-0.005038
-0.00562945
-0.0064195
-0.00733893
-0.00876098
-0.0103518
-0.0131203
-0.0154313
-0.0193148
-0.0181658
-0.0189328
-0.00997133
-0.00373354
-0.00426317
-0.0042059
-0.00445788
-0.0044414
-0.0045624
-0.00469524
-0.00493473
-0.00528036
-0.00574213
-0.00637965
-0.00712951
-0.00823388
-0.00934671
-0.0112531
-0.0125019
-0.0143125
-0.0122359
-0.0113014
0.00283173
-0.00580396
-0.00459926
-0.00436115
-0.00373394
-0.00368787
-0.00379089
-0.00403898
-0.00438691
-0.00482383
-0.00532819
-0.00594103
-0.00660598
-0.00743164
-0.00819091
-0.0091182
-0.00945103
-0.00940571
-0.00720172
-0.00384572
0.0223256
-0.00238933
-0.00572168
-0.00502181
-0.00556176
-0.00510218
-0.00514483
-0.00507826
-0.00516483
-0.00536747
-0.0056896
-0.00612568
-0.00664069
-0.00747887
-0.00825411
-0.00966456
-0.0106056
-0.0119889
-0.00671524
0.00315555
0.0528311
-0.0169154
-0.00410902
-0.0031075
-0.0028736
-0.00285337
-0.00300433
-0.0033309
-0.00368001
-0.00416032
-0.00465191
-0.00522216
-0.00585017
-0.00658201
-0.00713504
-0.00749965
-0.00586034
-0.00137663
0.0178748
0.0568331
0.145845
)
;

boundaryField
{
    movingWall
    {
        type            zeroGradient;
    }
    fixedWalls
    {
        type            zeroGradient;
    }
    frontAndBack
    {
        type            empty;
    }
}


// ************************************************************************* //
