/*--------------------------------*- C++ -*----------------------------------*\
  =========                 |
  \\      /  F ield         | OpenFOAM: The Open Source CFD Toolbox
   \\    /   O peration     | Website:  https://openfoam.org
    \\  /    A nd           | Version:  9
     \\/     M anipulation  |
\*---------------------------------------------------------------------------*/
FoamFile
{
    format      ascii;
    class       surfaceScalarField;
    location    "9";
    object      phi;
}
// * * * * * * * * * * * * * * * * * * * * * * * * * * * * * * * * * * * * * //

dimensions      [0 3 -1 0 0 0 0];

internalField   nonuniform List<scalar> 
760
(
-8.25624e-06
8.25624e-06
-2.24689e-05
1.42126e-05
-3.81886e-05
1.57198e-05
-5.43825e-05
1.61939e-05
-7.0886e-05
1.65035e-05
-8.76753e-05
1.67893e-05
-0.00010466
1.69842e-05
-0.000121623
1.69633e-05
-0.000138177
1.65544e-05
-0.000153706
1.55291e-05
-0.000167307
1.36012e-05
-0.000177743
1.04353e-05
-0.000183422
5.67959e-06
-0.000182432
-9.90278e-07
-0.000172674
-9.75858e-06
-0.000152315
-2.03585e-05
-0.000120484
-3.18309e-05
-7.85873e-05
-4.18968e-05
-3.2479e-05
-4.61084e-05
-3.2479e-05
-1.49743e-05
2.32305e-05
-3.84492e-05
3.76875e-05
-6.40249e-05
4.12955e-05
-9.00494e-05
4.22185e-05
-0.000116126
4.25801e-05
-0.000142062
4.27256e-05
-0.000167603
4.25247e-05
-0.000192348
4.17088e-05
-0.000215694
3.99004e-05
-0.000236765
3.65998e-05
-0.000254328
3.11638e-05
-0.000266753
2.28609e-05
-0.000272108
1.10341e-05
-0.000268051
-5.04672e-06
-0.000251828
-2.59824e-05
-0.000221144
-5.10419e-05
-0.000174818
-7.81567e-05
-0.000114533
-0.000102182
-4.8374e-05
-0.000112268
-8.08529e-05
-1.68496e-05
4.00802e-05
-4.30895e-05
6.39274e-05
-7.1565e-05
6.97709e-05
-0.000100423
7.10764e-05
-0.000129233
7.13903e-05
-0.000157799
7.12917e-05
-0.000185878
7.0603e-05
-0.000213098
6.89293e-05
-0.000238903
6.5705e-05
-0.000262471
6.0168e-05
-0.000282649
5.13423e-05
-0.00029785
3.80618e-05
-0.000305903
1.9087e-05
-0.000304092
-6.85765e-06
-0.000289099
-4.0976e-05
-0.000257559
-8.25811e-05
-0.000206935
-0.000128781
-0.000137826
-0.000171291
-5.93897e-05
-0.000190704
-0.000140243
-1.7151e-05
5.72312e-05
-4.40761e-05
9.08525e-05
-7.33217e-05
9.90165e-05
-0.000103003
0.000100758
-0.00013274
0.000101127
-0.000162413
0.000100965
-0.000191885
0.000100075
-0.000220929
9.79729e-05
-0.00024916
9.39363e-05
-0.000275955
8.69634e-05
-0.000300333
7.57196e-05
-0.000320786
5.85146e-05
-0.000335069
3.33707e-05
-0.000340235
-1.69146e-06
-0.000331677
-4.95343e-05
-0.000304189
-0.000110069
-0.000252416
-0.000180554
-0.000173849
-0.000249858
-7.81084e-05
-0.000286445
-0.000218351
-1.69714e-05
7.42026e-05
-4.39965e-05
0.000117878
-7.34648e-05
0.000128485
-0.000103488
0.000130781
-0.000133764
0.000131403
-0.000164299
0.0001315
-0.000195123
0.000130899
-0.000226224
0.000129073
-0.000257487
0.000125199
-0.000288604
0.000118081
-0.000318932
0.000106047
-0.000347257
8.68393e-05
-0.000371436
5.75501e-05
-0.000387953
1.48257e-05
-0.000391486
-4.60014e-05
-0.000373892
-0.000127663
-0.000325354
-0.000229092
-0.000237392
-0.00033782
-0.000114887
-0.000408951
-0.000333238
-1.66142e-05
9.08168e-05
-4.35546e-05
0.000144818
-7.30821e-05
0.000158012
-0.000103294
0.000160994
-0.000133976
0.000162084
-0.000165277
0.000162801
-0.000197439
0.000163062
-0.000230731
0.000162365
-0.000265408
0.000159876
-0.000301634
0.000154307
-0.000339328
0.000143742
-0.000377895
0.000125406
-0.000415735
9.53907e-05
-0.000449383
4.84737e-05
-0.00047327
-2.2115e-05
-0.00047645
-0.000124482
-0.000442971
-0.000262572
-0.000352763
-0.000428028
-0.000191243
-0.000570471
-0.00052448
-1.61353e-05
0.000106952
-4.28747e-05
0.000171557
-7.23346e-05
0.000187472
-0.000102573
0.000191232
-0.000133456
0.000192966
-0.000165283
0.000194629
-0.000198527
0.000196305
-0.000233792
0.000197629
-0.000271801
0.000197886
-0.000313359
0.000195864
-0.000359241
0.000189624
-0.000409953
0.000176118
-0.000465253
0.000150691
-0.000523246
0.000106466
-0.000579429
3.40676e-05
-0.00062305
-8.0861e-05
-0.000631466
-0.000254156
-0.000559843
-0.000499651
-0.000336891
-0.000793423
-0.000861371
-1.55379e-05
0.00012249
-4.19596e-05
0.000197979
-7.11914e-05
0.000216704
-0.000101214
0.000221255
-0.000131951
0.000223703
-0.000163842
0.00022652
-0.000197585
0.000230049
-0.000234134
0.000234179
-0.000274748
0.0002385
-0.000321034
0.00024215
-0.000374956
0.000243545
-0.000438743
0.000239905
-0.000514609
0.000226557
-0.000604194
0.000196052
-0.000707373
0.000137247
-0.000821077
3.28436e-05
-0.000912631
-0.000162602
-0.00087389
-0.000538392
-0.000531853
-0.00113546
-0.00139322
-1.48392e-05
0.000137329
-4.0837e-05
0.000223977
-6.96524e-05
0.00024552
-9.91382e-05
0.000250741
-0.000129237
0.000253802
-0.000160491
0.000257774
-0.000193787
0.000263344
-0.000230381
0.000270774
-0.000272024
0.000280143
-0.000321127
0.000291253
-0.000380993
0.000303412
-0.000456135
0.000315047
-0.000552675
0.000323096
-0.000678931
0.000322308
-0.000844839
0.000303155
-0.00104819
0.000236193
-0.00122575
1.49578e-05
-0.00115646
-0.000607678
-0.000637049
-0.00165487
-0.00203027
-1.41053e-05
0.000151434
-3.9633e-05
0.000249504
-6.78485e-05
0.000273735
-9.64284e-05
0.000279321
-0.000125278
0.000282651
-0.000154995
0.000287491
-0.000186582
0.000294931
-0.000221495
0.000305687
-0.000261839
0.000320487
-0.000310665
0.000340079
-0.000372429
0.000365176
-0.000453767
0.000396386
-0.000564793
0.000434122
-0.000720275
0.00047779
-0.0009358
0.00051868
-0.00119325
0.000493646
-0.00136815
0.000189851
-0.00118624
-0.000789581
-0.000625058
-0.00221606
-0.00265533
-1.33915e-05
0.000164826
-3.85088e-05
0.000274622
-6.60194e-05
0.000301246
-9.34023e-05
0.000306704
-0.000120363
0.000309612
-0.000147492
0.00031462
-0.000175819
0.000323258
-0.000206766
0.000336634
-0.00024244
0.000356161
-0.000286011
0.00038365
-0.000342329
0.000421494
-0.000419022
0.000473078
-0.000528467
0.000543567
-0.00068657
0.000635894
-0.000903077
0.000735187
-0.00112816
0.000718725
-0.00123296
0.00029466
-0.00101374
-0.00100881
-0.000627856
-0.00260194
-0.00328319
-1.32051e-05
0.000178031
-3.83251e-05
0.000299742
-6.50312e-05
0.000327952
-9.06191e-05
0.000332291
-0.000114885
0.000333878
-0.00013845
0.000338185
-0.000162104
0.000346912
-0.000187109
0.00036164
-0.000215288
0.00038434
-0.000249316
0.000417677
-0.000293229
0.000465408
-0.000352776
0.000532625
-0.000437536
0.000628326
-0.000554386
0.000752744
-0.000708339
0.00088914
-0.000835372
0.000845758
-0.000879403
0.00033869
-0.000740153
-0.00114806
-0.000533162
-0.00280893
-0.00381635
-1.21277e-05
0.000190159
-3.75253e-05
0.000325139
-6.39681e-05
0.000354395
-8.91219e-05
0.000357445
-0.000111106
0.000355863
-0.000130476
0.000357555
-0.000147759
0.000364194
-0.000163917
0.000377798
-0.000180084
0.000400506
-0.000197693
0.000435287
-0.000218871
0.000486585
-0.000245588
0.000559342
-0.000283342
0.00066608
-0.000326745
0.000796148
-0.000385662
0.000948057
-0.000410357
0.000870452
-0.000408832
0.000337165
-0.000391927
-0.00116496
-0.000322279
-0.00287858
-0.00413863
-1.71073e-05
0.000207266
-4.51346e-05
0.000353167
-7.04615e-05
0.000379722
-9.02498e-05
0.000377234
-0.000106245
0.000371858
-0.00011937
0.00037068
-0.000129859
0.000374683
-0.000137748
0.000385687
-0.000142963
0.000405721
-0.00014525
0.000437574
-0.000144382
0.000485717
-0.000137732
0.000552692
-0.000124925
0.000653273
-9.52825e-05
0.000766505
-3.84246e-05
0.000891199
8.09237e-06
0.000823935
7.0194e-05
0.000275064
-4.73164e-05
-0.00104745
-0.000176205
-0.00274969
-0.00431483
-6.92277e-06
0.000214189
-3.70686e-05
0.000383312
-6.70155e-05
0.000409668
-9.43999e-05
0.000404618
-0.000112047
0.000389505
-0.000122428
0.000381061
-0.000125333
0.000377587
-0.000121886
0.00038224
-0.000111938
0.000395774
-9.44334e-05
0.000420069
-6.71366e-05
0.00045842
-2.57965e-05
0.000511352
3.86284e-05
0.000588848
0.000128259
0.000676874
0.000260065
0.000759393
0.000383796
0.000700204
0.000436302
0.000222559
0.000223376
-0.000834528
-3.44782e-05
-0.00249184
-0.00434931
-5.09893e-05
0.000265178
-8.04086e-05
0.000412732
-9.91704e-05
0.00042843
-0.000106216
0.000411663
-0.000109267
0.000392557
-0.000109329
0.000381123
-0.000105162
0.00037342
-9.52999e-05
0.000372378
-7.77795e-05
0.000378254
-4.97753e-05
0.000392064
-7.854e-06
0.000416499
5.15432e-05
0.000451955
0.000137796
0.000502595
0.000253999
0.000560671
0.000413732
0.00059966
0.000544761
0.000569176
0.000620219
0.0001471
0.000376397
-0.000590706
6.43405e-05
-0.00217978
-0.00428497
1.4439e-05
0.000250739
-6.38434e-05
0.000491014
-0.000116867
0.000481454
-0.000143876
0.000438672
-0.000149495
0.000398176
-0.000144426
0.000376054
-0.000129347
0.000358341
-0.000106737
0.000349768
-7.49299e-05
0.000346446
-3.11368e-05
0.000348271
2.88714e-05
0.000356491
0.000109624
0.000371203
0.000218674
0.000393545
0.000357141
0.000422204
0.000528751
0.00042805
0.000677321
0.000420605
0.000698446
0.000125975
0.000383391
-0.00027565
0.000107809
-0.0019042
-0.00417716
-3.86507e-05
0.00028939
-2.35519e-06
0.000454718
-1.32322e-05
0.000492331
-5.87363e-05
0.000484176
-8.43132e-05
0.000423753
-0.000103455
0.000395195
-0.000107186
0.000362073
-9.66536e-05
0.000339235
-7.17299e-05
0.000321523
-2.97519e-05
0.000306293
2.9388e-05
0.000297351
0.000108203
0.000292388
0.000205838
0.00029591
0.000319531
0.000308511
0.00044792
0.000299661
0.000543648
0.000324878
0.000601002
6.862e-05
0.000500138
-0.000174785
0.000382536
-0.0017866
-0.00379463
-0.000646672
0.000936062
-0.000693069
0.000501116
-0.000656605
0.000455867
-0.000548854
0.000376425
-0.000439181
0.00031408
-0.00031855
0.000274564
-0.000198425
0.000241948
-7.65324e-05
0.000217342
4.50735e-05
0.000199917
0.000167196
0.000184171
0.000293451
0.000171096
0.000422478
0.000163361
0.000563666
0.000154722
0.000722945
0.000149232
0.000902626
0.000119979
0.001117
0.000110502
0.0012606
-7.49729e-05
0.00141674
-0.00033093
0.00107345
-0.00144331
-0.00272117
0.000936062
0.00143718
0.00189304
0.00226947
0.00258355
0.00285811
0.00310006
0.0033174
0.00351732
0.00370149
0.00387259
0.00403595
0.00419067
0.0043399
0.00445988
0.00457038
0.00449541
0.00416448
0.00272117
)
;

boundaryField
{
    movingWall
    {
        type            calculated;
        value           uniform 0;
    }
    fixedWalls
    {
        type            calculated;
        value           uniform 0;
    }
    frontAndBack
    {
        type            empty;
        value           nonuniform List<scalar> 0();
    }
}


// ************************************************************************* //
