/*--------------------------------*- C++ -*----------------------------------*\
  =========                 |
  \\      /  F ield         | OpenFOAM: The Open Source CFD Toolbox
   \\    /   O peration     | Website:  https://openfoam.org
    \\  /    A nd           | Version:  9
     \\/     M anipulation  |
\*---------------------------------------------------------------------------*/
FoamFile
{
    format      ascii;
    class       volVectorField;
    location    "9";
    object      U;
}
// * * * * * * * * * * * * * * * * * * * * * * * * * * * * * * * * * * * * * //

dimensions      [0 1 -1 0 0 0 0];

internalField   nonuniform List<vector> 
400
(
(-0.000281101 0.000266105 0)
(-0.00141517 0.00050892 0)
(-0.00303984 0.00057208 0)
(-0.00462463 0.000597239 0)
(-0.00626547 0.000619931 0)
(-0.0079333 0.00064595 0)
(-0.00962649 0.000671867 0)
(-0.0113306 0.000691831 0)
(-0.0130154 0.000697846 0)
(-0.0146312 0.000679109 0)
(-0.0161037 0.000622069 0)
(-0.0173274 0.000511437 0)
(-0.0181614 0.000331399 0)
(-0.0184293 6.30852e-05 0)
(-0.0179253 -0.000307039 0)
(-0.0164482 -0.000767456 0)
(-0.01382 -0.00127512 0)
(-0.0101508 -0.00172584 0)
(-0.00536509 -0.001925 0)
(-0.00130901 -0.00133334 0)
(-0.000558787 0.00143502 0)
(-0.00249715 0.0023999 0)
(-0.00513697 0.00264393 0)
(-0.00770485 0.0027157 0)
(-0.0103217 0.00275603 0)
(-0.0129297 0.00278769 0)
(-0.0155123 0.0028005 0)
(-0.0180383 0.00277487 0)
(-0.0204578 0.00268377 0)
(-0.0226971 0.00249163 0)
(-0.0246519 0.00215402 0)
(-0.0261805 0.00161845 0)
(-0.0271063 0.000828004 0)
(-0.0272136 -0.000264577 0)
(-0.0262413 -0.0016798 0)
(-0.0239303 -0.0033759 0)
(-0.0200568 -0.00520129 0)
(-0.0147449 -0.00679888 0)
(-0.0079018 -0.00746095 0)
(-0.00199764 -0.00530685 0)
(-0.000630973 0.00317015 0)
(-0.00280557 0.00508118 0)
(-0.00575019 0.00555353 0)
(-0.00860273 0.00566474 0)
(-0.0114995 0.00569667 0)
(-0.0143761 0.00569524 0)
(-0.0172175 0.00564479 0)
(-0.0199945 0.00551176 0)
(-0.0226612 0.0052487 0)
(-0.025149 0.00479258 0)
(-0.0273604 0.00406378 0)
(-0.02916 0.00296798 0)
(-0.0303622 0.00140393 0)
(-0.0307231 -0.000714564 0)
(-0.0299385 -0.0034413 0)
(-0.0276683 -0.0067192 0)
(-0.023561 -0.0102913 0)
(-0.0176104 -0.0135022 0)
(-0.00963889 -0.0148823 0)
(-0.00250175 -0.010808 0)
(-0.00063564 0.00486096 0)
(-0.00286222 0.00772713 0)
(-0.00588839 0.00842497 0)
(-0.00881782 0.0085756 0)
(-0.0118018 0.00860712 0)
(-0.0147784 0.00858998 0)
(-0.0177429 0.00850468 0)
(-0.0206789 0.008306 0)
(-0.0235563 0.00792854 0)
(-0.026326 0.00728308 0)
(-0.0289084 0.00625359 0)
(-0.0311807 0.00469827 0)
(-0.0329598 0.00245881 0)
(-0.0339929 -0.000624958 0)
(-0.0339046 -0.00467372 0)
(-0.0322024 -0.00969247 0)
(-0.0283039 -0.0153698 0)
(-0.0218607 -0.0207533 0)
(-0.0125078 -0.0233755 0)
(-0.0034232 -0.0174095 0)
(-0.000618674 0.00656848 0)
(-0.00284284 0.0104251 0)
(-0.00589078 0.0113602 0)
(-0.00884541 0.0115598 0)
(-0.0118722 0.011606 0)
(-0.014916 0.0115976 0)
(-0.0179879 0.0115151 0)
(-0.0210902 0.0113057 0)
(-0.0242179 0.0108905 0)
(-0.0273521 0.0101574 0)
(-0.0304472 0.00895436 0)
(-0.0334119 0.00708214 0)
(-0.0360825 0.00429516 0)
(-0.0381879 0.000318724 0)
(-0.0393014 -0.0050882 0)
(-0.0387591 -0.0121026 0)
(-0.0356314 -0.0204828 0)
(-0.0289763 -0.0290267 0)
(-0.0179532 -0.0339901 0)
(-0.00536961 -0.0264895 0)
(-0.000592777 0.00824926 0)
(-0.00279624 0.0131245 0)
(-0.00584836 0.0143109 0)
(-0.00881215 0.0145723 0)
(-0.0118669 0.0146541 0)
(-0.0149655 0.0146886 0)
(-0.0181379 0.014662 0)
(-0.0214106 0.0145208 0)
(-0.0248113 0.0141794 0)
(-0.0283633 0.0135103 0)
(-0.0320752 0.0123303 0)
(-0.0359182 0.0103835 0)
(-0.0397876 0.00732414 0)
(-0.0434373 0.00271453 0)
(-0.0464439 -0.00394337 0)
(-0.0480196 -0.0131108 0)
(-0.0468504 -0.0248856 0)
(-0.0410768 -0.0380663 0)
(-0.0286661 -0.04762 0)
(-0.00964703 -0.0402986 0)
(-0.000560117 0.00988704 0)
(-0.00273153 0.0158079 0)
(-0.00577652 0.0172597 0)
(-0.00873469 0.0175949 0)
(-0.011799 0.0177328 0)
(-0.0149294 0.0178456 0)
(-0.0181762 0.0179322 0)
(-0.0215935 0.0179472 0)
(-0.0252485 0.01781 0)
(-0.0292195 0.0173908 0)
(-0.03359 0.0164891 0)
(-0.0384321 0.0148039 0)
(-0.0437686 0.0118935 0)
(-0.049504 0.00713088 0)
(-0.0553348 -0.000310972 0)
(-0.0605665 -0.0113325 0)
(-0.0637303 -0.0268626 0)
(-0.0616582 -0.0465121 0)
(-0.0489217 -0.0654999 0)
(-0.0179972 -0.0637854 0)
(-0.000520673 0.0114711 0)
(-0.00264945 0.0184655 0)
(-0.0056749 0.0201946 0)
(-0.00860694 0.0206096 0)
(-0.0116513 0.020817 0)
(-0.014773 0.0210363 0)
(-0.0180411 0.0212872 0)
(-0.0215375 0.0215436 0)
(-0.0253723 0.0217459 0)
(-0.029689 0.0217852 0)
(-0.034668 0.0214758 0)
(-0.0405246 0.0205121 0)
(-0.0474924 0.0184018 0)
(-0.055768 0.0143757 0)
(-0.0654399 0.00730859 0)
(-0.0765552 -0.00435211 0)
(-0.0879385 -0.0228316 0)
(-0.0936192 -0.0514405 0)
(-0.078571 -0.0904094 0)
(-0.0268709 -0.105631 0)
(-0.00047524 0.0129898 0)
(-0.00255279 0.0210854 0)
(-0.00554609 0.0230967 0)
(-0.0084261 0.0235868 0)
(-0.0114102 0.0238635 0)
(-0.0144639 0.0242017 0)
(-0.017671 0.0246508 0)
(-0.0211368 0.0252155 0)
(-0.0250089 0.0258746 0)
(-0.0294919 0.0265679 0)
(-0.0348671 0.027169 0)
(-0.0415198 0.0274398 0)
(-0.0499727 0.0269551 0)
(-0.0609219 0.0250017 0)
(-0.0753474 0.0204564 0)
(-0.0944292 0.0111656 0)
(-0.116704 -0.00862124 0)
(-0.128161 -0.0541352 0)
(-0.0991959 -0.133221 0)
(-0.0265274 -0.169549 0)
(-0.000426952 0.0144371 0)
(-0.00245192 0.0236653 0)
(-0.00540455 0.0259578 0)
(-0.00820385 0.0265061 0)
(-0.0110792 0.0268311 0)
(-0.0139904 0.0272745 0)
(-0.0170293 0.0279251 0)
(-0.0203158 0.0288301 0)
(-0.0240227 0.030028 0)
(-0.0283993 0.0315422 0)
(-0.0338071 0.0333657 0)
(-0.0407783 0.0354318 0)
(-0.0501047 0.037568 0)
(-0.0629608 0.0394281 0)
(-0.0812029 0.0401809 0)
(-0.106727 0.035839 0)
(-0.135273 0.0114302 0)
(-0.139852 -0.0681064 0)
(-0.0932624 -0.197902 0)
(-0.0284564 -0.237033 0)
(-0.000377583 0.0158019 0)
(-0.00235707 0.0261666 0)
(-0.00527153 0.0287002 0)
(-0.00796901 0.0292508 0)
(-0.0106904 0.0295793 0)
(-0.0133756 0.0300921 0)
(-0.0161181 0.0309112 0)
(-0.0190369 0.0321307 0)
(-0.0223001 0.0338525 0)
(-0.0261579 0.036195 0)
(-0.0309858 0.0393002 0)
(-0.0373643 0.0433465 0)
(-0.046209 0.04859 0)
(-0.0589037 0.0552065 0)
(-0.0775737 0.0622766 0)
(-0.102725 0.0609931 0)
(-0.12831 0.0248768 0)
(-0.119424 -0.0932889 0)
(-0.0807116 -0.250717 0)
(-0.0396425 -0.299113 0)
(-0.000351687 0.017172 0)
(-0.00234513 0.0288367 0)
(-0.00524083 0.0316421 0)
(-0.00779671 0.0322155 0)
(-0.0102905 0.0324498 0)
(-0.0126618 0.0328959 0)
(-0.0149907 0.0337271 0)
(-0.0173761 0.0351117 0)
(-0.0199627 0.0372339 0)
(-0.0229618 0.0403277 0)
(-0.0266853 0.0447147 0)
(-0.0315866 0.0508482 0)
(-0.0384267 0.0594744 0)
(-0.0480332 0.0708561 0)
(-0.0618397 0.0831315 0)
(-0.0778482 0.080238 0)
(-0.095436 0.0319315 0)
(-0.0783018 -0.112779 0)
(-0.0722113 -0.277404 0)
(-0.0282365 -0.364502 0)
(-0.000257622 0.018317 0)
(-0.00223007 0.0308706 0)
(-0.00517774 0.0336596 0)
(-0.00768015 0.0338783 0)
(-0.0100701 0.0339513 0)
(-0.0121089 0.0343691 0)
(-0.0139124 0.0353002 0)
(-0.0155435 0.0368731 0)
(-0.0171045 0.0392802 0)
(-0.0187151 0.0427986 0)
(-0.0205506 0.0478482 0)
(-0.0227493 0.0549703 0)
(-0.0258825 0.0652428 0)
(-0.0295701 0.0783145 0)
(-0.0361144 0.0928089 0)
(-0.0383414 0.0868391 0)
(-0.0490779 0.0337906 0)
(-0.0292349 -0.120245 0)
(-0.0520969 -0.290171 0)
(-0.00734251 -0.405943 0)
(-0.000518835 0.0198303 0)
(-0.00297048 0.0345383 0)
(-0.00595128 0.0376433 0)
(-0.00811596 0.0381837 0)
(-0.00987568 0.0377877 0)
(-0.0113237 0.0376878 0)
(-0.0124856 0.0380149 0)
(-0.0133882 0.0390757 0)
(-0.0140218 0.0411067 0)
(-0.0143657 0.0444301 0)
(-0.0144576 0.0495104 0)
(-0.0139336 0.0568111 0)
(-0.013518 0.0677645 0)
(-0.010369 0.0808763 0)
(-0.00982155 0.0957687 0)
(0.00324955 0.0882877 0)
(-0.00221593 0.0329468 0)
(0.0177908 -0.111698 0)
(-0.0285473 -0.284401 0)
(-0.00297463 -0.425243 0)
(0.00027026 0.0219102 0)
(-0.00173639 0.0355589 0)
(-0.0054929 0.0376898 0)
(-0.00809659 0.0363472 0)
(-0.0106031 0.0356703 0)
(-0.0118563 0.0355515 0)
(-0.0125073 0.0361131 0)
(-0.0124535 0.037357 0)
(-0.0117866 0.0394473 0)
(-0.010409 0.0425964 0)
(-0.00837987 0.0472186 0)
(-0.00466164 0.0534465 0)
(-0.000705308 0.0625255 0)
(0.00893448 0.0727006 0)
(0.0156905 0.0830915 0)
(0.0382338 0.0763559 0)
(0.0343259 0.0243152 0)
(0.0566678 -0.0947111 0)
(-0.0151342 -0.261923 0)
(0.00998481 -0.436969 0)
(-0.00290347 0.020093 0)
(-0.00713859 0.0417936 0)
(-0.0090484 0.0450589 0)
(-0.0105533 0.045967 0)
(-0.0107956 0.0435754 0)
(-0.0110349 0.0419774 0)
(-0.0108172 0.0405819 0)
(-0.0101476 0.0401276 0)
(-0.00882743 0.0406005 0)
(-0.00656918 0.0421978 0)
(-0.00345038 0.0451888 0)
(0.00201653 0.0496167 0)
(0.00804463 0.0563504 0)
(0.0202961 0.0640591 0)
(0.0291874 0.0710972 0)
(0.0555105 0.0668013 0)
(0.0492609 0.022232 0)
(0.0792745 -0.0677054 0)
(-0.0086082 -0.229902 0)
(0.0239266 -0.432043 0)
(0.00372348 0.0348252 0)
(-0.00111626 0.0400598 0)
(-0.0111295 0.0396805 0)
(-0.0128034 0.0343518 0)
(-0.0154575 0.0330202 0)
(-0.0147211 0.0323828 0)
(-0.0139223 0.0324526 0)
(-0.0119542 0.0329103 0)
(-0.00930647 0.0338373 0)
(-0.005533 0.035219 0)
(-0.000796373 0.0373209 0)
(0.00673434 0.0401555 0)
(0.0148049 0.0436772 0)
(0.0298001 0.04797 0)
(0.0401296 0.0478733 0)
(0.0672982 0.0457697 0)
(0.0643864 0.00610992 0)
(0.079273 -0.0521254 0)
(-0.00778107 -0.203516 0)
(0.0331753 -0.429393 0)
(-0.00381707 0.0122727 0)
(-0.00327327 0.0595341 0)
(0.00267395 0.0579004 0)
(-0.00506585 0.0562582 0)
(-0.0070294 0.0491997 0)
(-0.00988779 0.0453178 0)
(-0.0109339 0.0413949 0)
(-0.0105615 0.0389502 0)
(-0.00882593 0.037099 0)
(-0.00539155 0.0358694 0)
(-0.000655149 0.0352539 0)
(0.00663715 0.0352812 0)
(0.0146959 0.0364417 0)
(0.0269276 0.0381033 0)
(0.0359377 0.0401999 0)
(0.0542839 0.0413212 0)
(0.0522981 0.0212435 0)
(0.0688926 -0.000755193 0)
(0.0238531 -0.174337 0)
(0.0622538 -0.413123 0)
(-0.0776105 0.0513561 0)
(-0.0564598 0.0286674 0)
(-0.0780174 0.0379037 0)
(-0.0558859 0.0365352 0)
(-0.0519609 0.0321175 0)
(-0.0369558 0.0304655 0)
(-0.0261412 0.0282426 0)
(-0.0137412 0.0264968 0)
(-0.00161884 0.0251653 0)
(0.0107063 0.0236275 0)
(0.0225547 0.0226867 0)
(0.0366318 0.0218365 0)
(0.0471159 0.0211797 0)
(0.066953 0.0217469 0)
(0.0756721 0.0169373 0)
(0.106892 0.0196604 0)
(0.110383 -0.0101769 0)
(0.144973 -0.0391789 0)
(0.122873 -0.203189 0)
(0.113499 -0.376245 0)
(0.0838828 0.123784 0)
(0.113808 0.0747471 0)
(0.165069 0.056369 0)
(0.211786 0.0423496 0)
(0.241595 0.0336774 0)
(0.275165 0.0271687 0)
(0.295749 0.0224355 0)
(0.324671 0.018942 0)
(0.338124 0.016494 0)
(0.366272 0.0146636 0)
(0.37329 0.0127987 0)
(0.402011 0.0119483 0)
(0.40387 0.0109208 0)
(0.433861 0.00937263 0)
(0.428858 0.00874746 0)
(0.459586 0.00483965 0)
(0.439053 -0.00184949 0)
(0.450346 -0.0180989 0)
(0.358472 -0.0588733 0)
(0.228524 -0.122711 0)
)
;

boundaryField
{
    movingWall
    {
        type            fixedValue;
        value           uniform (1 0 0);
    }
    fixedWalls
    {
        type            noSlip;
    }
    frontAndBack
    {
        type            empty;
    }
}


// ************************************************************************* //
