/*--------------------------------*- C++ -*----------------------------------*\
  =========                 |
  \\      /  F ield         | OpenFOAM: The Open Source CFD Toolbox
   \\    /   O peration     | Website:  https://openfoam.org
    \\  /    A nd           | Version:  9
     \\/     M anipulation  |
\*---------------------------------------------------------------------------*/
FoamFile
{
    format      ascii;
    class       volScalarField;
    location    "5";
    object      p;
}
// * * * * * * * * * * * * * * * * * * * * * * * * * * * * * * * * * * * * * //

dimensions      [0 2 -2 0 0 0 0];

internalField   nonuniform List<scalar> 
8000
(
-7.59287e-07
-2.66726e-06
2.1348e-05
6.16418e-05
0.000122129
0.000203389
0.000306089
0.000430622
0.000576776
0.000743684
0.000929315
0.0011302
0.00134138
0.00155587
0.00176494
0.0019583
0.00212484
0.00225253
0.00233781
0.00235667
2.16828e-06
-1.13835e-06
2.22665e-05
6.1157e-05
0.000119836
0.000198969
0.00029938
0.000421652
0.000565844
0.000731268
0.000916121
0.00111711
0.00132938
0.00154642
0.00175926
0.00195731
0.00212889
0.00226116
0.00235052
0.0023702
-2.59197e-05
-3.09003e-05
-8.72042e-06
2.84675e-05
8.53392e-05
0.00016269
0.000261618
0.000383055
0.000527473
0.000694609
0.000883155
0.00109048
0.00131205
0.00154101
0.00176818
0.00198212
0.00216976
0.002316
0.00241593
0.00243834
-7.40531e-05
-8.06391e-05
-6.01596e-05
-2.54815e-05
2.86209e-05
0.000103196
0.000199787
0.000319875
0.000464592
0.00063442
0.000828805
0.00104573
0.00128131
0.00152928
0.00177994
0.00202046
0.00223531
0.00240557
0.00252387
0.00255248
-0.000145109
-0.000153722
-0.000135542
-0.000104253
-5.39359e-05
1.67918e-05
0.00011007
0.000228127
0.000372992
0.0005462
0.000748354
0.000978545
0.00123381
0.00150847
0.00179264
0.00207206
0.00232808
0.00253585
0.00268327
0.00272298
-0.000238798
-0.000249996
-0.000234887
-0.000208179
-0.000163119
-9.79324e-05
-9.75629e-06
0.000104568
0.000248234
0.000424161
0.000634558
0.000880224
0.00115956
0.0014686
0.00179755
0.00213072
0.0024457
0.00270954
0.00290157
0.00296074
-0.000354845
-0.000369302
-0.000358249
-0.000337696
-0.000299921
-0.000242737
-0.000162461
-5.48496e-05
8.46986e-05
0.000260886
0.000478047
0.000739434
0.00104589
0.00139588
0.0017812
0.00218554
0.00258237
0.00292888
0.0031888
0.00328312
-0.000492856
-0.000511355
-0.00050555
-0.000493125
-0.000465262
-0.000419399
-0.000350988
-0.000254615
-0.000124084
4.7428e-05
0.000267012
0.000541346
0.000875906
0.00127011
0.00172245
0.00221739
0.00272501
0.00319225
0.00355611
0.00371577
-0.000652235
-0.000675649
-0.00067644
-0.000674479
-0.000659739
-0.000629393
-0.000578079
-0.000499222
-0.000384969
-0.000226177
-1.25693e-05
0.000266778
0.000622176
0.0010616
0.00158829
0.00219341
0.00284665
0.00348777
0.0040122
0.004298
-0.000832217
-0.000861478
-0.000870235
-0.000881335
-0.00088339
-0.000873546
-0.000845785
-0.000792535
-0.000704415
-0.000569982
-0.000375546
-0.000105151
0.000258736
0.000733557
0.00133255
0.00206043
0.00289524
0.00378084
0.00454463
0.00509378
-0.001032
-0.00106805
-0.0010859
-0.00111272
-0.00113544
-0.0011516
-0.00115483
-0.00113693
-0.00108741
-0.000993034
-0.000837226
-0.000599405
-0.000254377
0.00022766
0.000873903
0.00172207
0.00276815
0.00398821
0.00510179
0.00619147
-0.00125115
-0.00129492
-0.00132212
-0.0013671
-0.00141408
-0.00146178
-0.00150388
-0.00153207
-0.00153549
-0.00150002
-0.00140727
-0.00123295
-0.000944556
-0.000498514
0.000162405
0.00108655
0.00232705
0.00394936
0.00553565
0.00764917
-0.00149032
-0.00154325
-0.00157851
-0.00164412
-0.00171739
-0.00180082
-0.00188888
-0.0019739
-0.00204549
-0.0020903
-0.00209124
-0.00202503
-0.0018582
-0.00154199
-0.00100375
-0.000142887
0.00115297
0.0032286
0.00537147
0.00928895
-0.00175139
-0.00179601
-0.00183549
-0.00191346
-0.00201769
-0.00214782
-0.00229526
-0.00245074
-0.00260517
-0.00274883
-0.00286966
-0.00295037
-0.00296401
-0.00286695
-0.00258478
-0.00197232
-0.000866625
0.00137577
0.00361681
0.0102671
-0.00205955
-0.00217181
-0.00219806
-0.0023298
-0.00244715
-0.00260163
-0.00278302
-0.00299151
-0.00322428
-0.00347682
-0.00374358
-0.00402021
-0.00430029
-0.00457171
-0.00480769
-0.00486325
-0.00480627
-0.00297899
-0.00154364
0.00883555
-0.00243911
-0.00233426
-0.00235248
-0.00240537
-0.00255871
-0.0027828
-0.0030661
-0.0033912
-0.0037504
-0.00414084
-0.00456705
-0.00504474
-0.00560138
-0.00626754
-0.00715501
-0.00803409
-0.00967762
-0.00869831
-0.00934776
0.00456786
-0.00265288
-0.00310002
-0.00299883
-0.00329403
-0.00337819
-0.00359285
-0.00383809
-0.00414844
-0.00452407
-0.00497239
-0.0055005
-0.00615412
-0.00699021
-0.00806014
-0.00986356
-0.0115687
-0.0158467
-0.0174769
-0.0192375
-0.000924266
-0.00437098
-0.0029405
-0.00291042
-0.00268998
-0.00286615
-0.0031748
-0.00361018
-0.0041102
-0.00467046
-0.00527773
-0.00596058
-0.00673954
-0.0077842
-0.00893512
-0.0114443
-0.0136335
-0.0200793
-0.0237406
-0.025807
0.00245978
-0.00293688
-0.00517658
-0.00436879
-0.00489527
-0.00467774
-0.00484093
-0.0050091
-0.00532559
-0.00572865
-0.0062624
-0.00681952
-0.00758988
-0.0086036
-0.00971408
-0.0128019
-0.015175
-0.0231372
-0.026187
-0.022016
0.0251636
-0.0155556
-0.00312239
-0.00272399
-0.00250835
-0.00263774
-0.00302953
-0.00362783
-0.00424427
-0.00495102
-0.00563163
-0.00644688
-0.00718102
-0.00840055
-0.00934244
-0.0114801
-0.0122948
-0.0130221
-0.00330634
0.0238627
0.101754
2.39114e-06
-3.98906e-06
1.95861e-05
5.95491e-05
0.000120103
0.000201623
0.000304718
0.000429777
0.000576718
0.000744536
0.000931213
0.00113336
0.00134593
0.00156199
0.00177271
0.00196767
0.0021355
0.00226363
0.00234888
0.00236267
8.6087e-06
1.51934e-06
2.46857e-05
6.30793e-05
0.000121511
0.000200481
0.000300789
0.000423032
0.000567302
0.000732921
0.000918117
0.00111953
0.00133274
0.00155076
0.0017647
0.00196386
0.00213636
0.00226884
0.00235818
0.00237259
-1.87258e-05
-2.76643e-05
-5.66901e-06
3.09883e-05
8.75718e-05
0.00016471
0.00026348
0.000384838
0.00052929
0.000696607
0.000885498
0.00109343
0.00131585
0.0015459
0.00177435
0.00198966
0.00217849
0.00232508
0.00242508
0.00244156
-6.57997e-05
-7.6535e-05
-5.6208e-05
-2.20906e-05
3.16853e-05
0.000105999
0.00020238
0.000322339
0.000467043
0.000637019
0.000831742
0.00104917
0.00128593
0.00153522
0.00178746
0.00202969
0.00224608
0.00241698
0.0025355
0.00255752
-0.000135934
-0.000148943
-0.00013088
-0.000100158
-5.01646e-05
2.03072e-05
0.000113387
0.000231335
0.000376234
0.000549676
0.00075232
0.000983192
0.00123992
0.00151628
0.00180258
0.0020844
0.00234272
0.0025517
0.00269971
0.00273201
-0.000228602
-0.000244502
-0.000229463
-0.000203317
-0.00015856
-9.36003e-05
-5.58068e-06
0.000108698
0.000252487
0.000428798
0.000639978
0.000887239
0.00116791
0.00147919
0.00181115
0.00214794
0.00246661
0.00273284
0.00292626
0.00297731
-0.000343404
-0.000362932
-0.000351889
-0.000331895
-0.0002944
-0.00023741
-0.000157238
-4.95924e-05
9.02013e-05
0.000266945
0.000485109
0.000748065
0.00105689
0.00141023
0.00180007
0.00221006
0.00261317
0.00296457
0.00322774
0.00331424
-0.00047987
-0.000503881
-0.000498017
-0.000486154
-0.000458559
-0.000412866
-0.000344513
-0.000248023
-0.000117115
5.51544e-05
0.000276012
0.000552218
0.000889144
0.00128927
0.00174864
0.00225271
0.00277131
0.00324904
0.00362009
0.00377746
-0.000637316
-0.000666763
-0.00066742
-0.000666046
-0.000651586
-0.000621414
-0.000570137
-0.000491101
-0.000376346
-0.000216566
-1.2577e-06
0.00028074
0.000639869
0.00108708
0.00162462
0.00224442
0.00291694
0.00358043
0.00412136
0.00442564
-0.00081484
-0.000850755
-0.000859307
-0.000871055
-0.000873456
-0.000863846
-0.000836154
-0.000782716
-0.000694005
-0.000558349
-0.000361657
-8.72347e-05
0.000284114
0.000766779
0.00138105
0.0021323
0.00300107
0.00393215
0.00473505
0.00537144
-0.00101141
-0.00105487
-0.00107247
-0.00110007
-0.0011233
-0.00113985
-0.00114329
-0.0011253
-0.00107522
-0.000979539
-0.000821232
-0.000579033
-0.000227048
0.000264105
0.000938896
0.00182263
0.00292551
0.00422925
0.00543033
0.00680696
-0.00122613
-0.0012782
-0.00130512
-0.00135111
-0.00139899
-0.00144749
-0.00149015
-0.00151855
-0.00152161
-0.00148488
-0.00138938
-0.00120962
-0.000910788
-0.000443978
0.000241661
0.00120587
0.00253423
0.00431203
0.00604541
0.00894782
-0.0014589
-0.00152249
-0.00155765
-0.00162519
-0.00169962
-0.00178408
-0.00187302
-0.00195872
-0.00203054
-0.0020748
-0.00207379
-0.00200312
-0.00182748
-0.00149599
-0.000934005
-3.79549e-05
0.00137309
0.00366839
0.00594464
0.0114265
-0.00170768
-0.00176133
-0.00180181
-0.00188107
-0.00198898
-0.00212264
-0.00227362
-0.00243205
-0.00258845
-0.0027327
-0.00285227
-0.00292915
-0.00293539
-0.00282613
-0.0025229
-0.00189034
-0.000796915
0.00143719
0.00266019
0.0114033
-0.00199793
-0.00213719
-0.00216325
-0.00230372
-0.0024246
-0.00258297
-0.00276725
-0.00297849
-0.00321386
-0.00346849
-0.00373642
-0.00401347
-0.00429469
-0.0045761
-0.00484275
-0.0050764
-0.00553984
-0.00393965
-0.00596017
0.00622643
-0.00234069
-0.00225848
-0.00227923
-0.00233207
-0.00249702
-0.00273066
-0.00302549
-0.00336094
-0.00372913
-0.00412659
-0.00455798
-0.00503882
-0.00560142
-0.00629585
-0.00726476
-0.00848711
-0.0110379
-0.0107559
-0.0158425
-0.00186414
-0.00239789
-0.00294719
-0.00289777
-0.0032342
-0.00333872
-0.0035731
-0.00383391
-0.00415698
-0.00454196
-0.005001
-0.00553147
-0.00618912
-0.00702772
-0.00813831
-0.0100699
-0.0121979
-0.0176723
-0.0209026
-0.0263639
-0.00793764
-0.00414427
-0.00282244
-0.00274848
-0.00249695
-0.00270832
-0.00305904
-0.00353836
-0.00407455
-0.00466327
-0.00529258
-0.00598651
-0.00675933
-0.00778801
-0.00895415
-0.0114364
-0.014172
-0.0210319
-0.0259451
-0.032903
-0.000982094
-0.00132978
-0.00437471
-0.00390152
-0.00465626
-0.0045587
-0.00483595
-0.00508606
-0.00547291
-0.00588582
-0.00650041
-0.00701486
-0.00775037
-0.00875419
-0.00959001
-0.0127721
-0.0155061
-0.023062
-0.0280403
-0.0234996
0.0287274
-0.0147108
-0.00233977
-0.00191535
-0.00195469
-0.00229108
-0.00277847
-0.00347053
-0.00414087
-0.00492174
-0.00562923
-0.00649116
-0.0071838
-0.00837654
-0.00939404
-0.0112462
-0.0125819
-0.0121496
-0.0015192
0.0313025
0.119343
5.37914e-06
-2.18081e-06
2.11091e-05
6.08292e-05
0.000121333
0.000202923
0.000306203
0.00043157
0.0005789
0.000747282
0.000934721
0.00113783
0.00135156
0.00156891
0.00178098
0.00197724
0.00214617
0.00227492
0.00236046
0.00237279
1.2707e-05
4.44119e-06
2.74029e-05
6.54942e-05
0.000123783
0.000202699
0.000303042
0.000425421
0.000569946
0.000735969
0.000921743
0.00112394
0.00133815
0.00155734
0.00177256
0.00197301
0.00214662
0.00227974
0.00236946
0.00238247
-1.4169e-05
-2.43167e-05
-2.48797e-06
3.38625e-05
9.02798e-05
0.000167334
0.000266113
0.000387588
0.000532295
0.000700039
0.000889562
0.00109837
0.00132192
0.00155333
0.00178332
0.00200023
0.00219051
0.00233804
0.00243862
0.00245363
-6.05293e-05
-7.25289e-05
-5.23515e-05
-1.85536e-05
3.5039e-05
0.000109246
0.00020561
0.000325668
0.000470632
0.000641072
0.000836513
0.00105499
0.00129311
0.0015441
0.00179833
0.0020427
0.00226112
0.00243348
0.00255302
0.00257355
-0.000129886
-0.000144245
-0.00012632
-9.59303e-05
-4.61283e-05
2.42315e-05
0.000117299
0.000235371
0.00038058
0.000554584
0.000758128
0.000990464
0.00124878
0.00152738
0.00181642
0.00210131
0.0023627
0.00257412
0.00272393
0.00275493
-0.00022162
-0.000238978
-0.000224068
-0.000198272
-0.000153714
-8.88686e-05
-8.48368e-07
0.000113594
0.000257772
0.000434776
0.000647015
0.000895659
0.00117893
0.00149333
0.00182918
0.00217051
0.00249402
0.00276442
0.0029611
0.00301157
-0.000335251
-0.000356371
-0.000345452
-0.000325836
-0.000288562
-0.000231702
-0.000151528
-4.36857e-05
9.65853e-05
0.000274209
0.000493827
0.000759008
0.00107076
0.00142827
0.00182363
0.00224045
0.00265128
0.00301002
0.00327911
0.00336723
-0.00047022
-0.000495989
-0.000490251
-0.000478819
-0.000451493
-0.000405977
-0.000337655
-0.000240972
-0.000109536
6.37482e-05
0.000286306
0.00056509
0.000905918
0.00131178
0.00177902
0.0022933
0.00282421
0.00331495
0.00369696
0.0038613
-0.00062572
-0.000657133
-0.000657932
-0.00065708
-0.000642986
-0.000613096
-0.000561947
-0.000482793
-0.000367536
-0.000206677
1.05664e-05
0.00029577
0.000660192
0.00111442
0.00166278
0.00229745
0.00298915
0.00367526
0.00423654
0.00456145
-0.000800665
-0.000838806
-0.000847545
-0.000859969
-0.000862909
-0.00085378
-0.000826422
-0.000773061
-0.00068401
-0.000547359
-0.00034865
-7.06901e-05
0.000306109
0.000797966
0.00142648
0.00219849
0.00309612
0.00406475
0.00490278
0.00559588
-0.00099372
-0.00103975
-0.00105763
-0.00108617
-0.00111023
-0.00112761
-0.00113175
-0.00111422
-0.00106419
-0.000967889
-0.000807873
-0.000562266
-0.000204221
0.000297427
0.000989557
0.0019
0.00304351
0.00440593
0.00566644
0.00717689
-0.00120349
-0.00125856
-0.00128593
-0.00133325
-0.00138247
-0.00143239
-0.00147638
-0.00150591
-0.00150975
-0.00147315
-0.0013767
-0.00119418
-0.000889534
-0.00041224
0.000291586
0.00128372
0.0026629
0.00452697
0.00634706
0.00951393
-0.00142912
-0.00149672
-0.0015327
-0.00160246
-0.00167886
-0.00176544
-0.00185653
-0.00194436
-0.00201815
-0.00206397
-0.00206374
-0.00199255
-0.00181423
-0.00147669
-0.000902195
1.49365e-05
0.00147528
0.00387992
0.00624387
0.012142
-0.00166638
-0.00172427
-0.00176615
-0.00184782
-0.00195907
-0.00209653
-0.00225174
-0.00241446
-0.00257497
-0.00272291
-0.00284555
-0.00292471
-0.00293229
-0.00282301
-0.00251839
-0.00188813
-0.000801108
0.00148077
0.0025322
0.0118155
-0.00193913
-0.00208595
-0.00211511
-0.0022619
-0.00238853
-0.00255331
-0.0027438
-0.00296132
-0.00320282
-0.00346371
-0.00373764
-0.00402124
-0.00431084
-0.00460624
-0.00489901
-0.00519808
-0.00578248
-0.00423819
-0.00635819
0.00591221
-0.00226234
-0.00219067
-0.0022126
-0.00226913
-0.00244008
-0.00268142
-0.0029859
-0.00333175
-0.00371095
-0.0041193
-0.00456065
-0.00505151
-0.0056265
-0.00634251
-0.00735385
-0.00871322
-0.0114859
-0.0117443
-0.0162738
-0.00305521
-0.00223983
-0.00280674
-0.00277998
-0.00313314
-0.00325604
-0.00350848
-0.00378576
-0.00412814
-0.00453149
-0.00500927
-0.0055518
-0.00622261
-0.00707352
-0.00820774
-0.0102016
-0.0125433
-0.0182951
-0.0227051
-0.0266717
-0.00910566
-0.0040275
-0.00272117
-0.00263034
-0.00237231
-0.00259053
-0.00295899
-0.00346207
-0.00402218
-0.0046364
-0.00529008
-0.00600098
-0.0067841
-0.00781328
-0.00899758
-0.011433
-0.0144902
-0.0210688
-0.0273707
-0.0305522
-0.000439444
-0.00087029
-0.00397119
-0.00358408
-0.00438167
-0.00432351
-0.00464892
-0.00495207
-0.00539814
-0.00585179
-0.00654553
-0.00706445
-0.00781737
-0.00882675
-0.00959734
-0.0127429
-0.0157157
-0.0225642
-0.0272269
-0.0200552
0.0318269
-0.0145263
-0.00207286
-0.00161559
-0.00168419
-0.00206395
-0.00259068
-0.00333227
-0.00404584
-0.00487554
-0.00562458
-0.00650257
-0.00722547
-0.00836061
-0.00948169
-0.0110962
-0.0125507
-0.0114898
0.000384805
0.0359611
0.125005
8.44171e-06
1.53228e-07
2.32343e-05
6.275e-05
0.000123212
0.000204886
0.000308372
0.000434082
0.000581913
0.00075097
0.000939268
0.00114343
0.00135839
0.00157713
0.00179067
0.00198837
0.00215854
0.0022881
0.00237411
0.00238579
1.65295e-05
7.58263e-06
3.03636e-05
6.82265e-05
0.000126418
0.00020534
0.000305797
0.000428418
0.000573338
0.000739932
0.000926482
0.00112968
0.0013451
0.00156569
0.00178243
0.00198438
0.00215933
0.00229336
0.00238365
0.00239598
-9.86907e-06
-2.07183e-05
9.42404e-07
3.70538e-05
9.33621e-05
0.000170407
0.000269288
0.000391
0.00053611
0.000704459
0.000894823
0.00110475
0.0013297
0.00156276
0.00179457
0.00201337
0.00220539
0.00235419
0.00245564
0.00246999
-5.55323e-05
-6.82607e-05
-4.82451e-05
-1.47015e-05
3.87638e-05
0.000112943
0.000209396
0.000329695
0.000475087
0.000646192
0.000842583
0.00106236
0.0013022
0.0015553
0.00181193
0.00205885
0.00227973
0.00245404
0.00257499
0.00259502
-0.000124102
-0.000139228
-0.000121465
-9.13445e-05
-4.16814e-05
2.86422e-05
0.000121803
0.000240142
0.000385843
0.000560623
0.000765271
0.000999057
0.00125975
0.00154117
0.00183351
0.00212207
0.00238718
0.00260178
0.00275402
0.00278497
-0.000214882
-0.000233057
-0.000218312
-0.000192807
-0.000148403
-8.36033e-05
4.51695e-06
0.000119261
0.000264014
0.000441944
0.000655455
0.000905058
0.00119228
0.00151057
0.00185107
0.00219782
0.00252712
0.00280285
0.00300378
0.00305531
-0.000327315
-0.000349314
-0.000338572
-0.000319284
-0.000282195
-0.000225407
-0.000145142
-3.69748e-05
0.00010396
0.000282741
0.000504294
0.000773182
0.00108751
0.00144986
0.00185173
0.00227656
0.00269653
0.00306433
0.00334107
0.00343288
-0.00046075
-0.000487473
-0.000481938
-0.000470897
-0.00044382
-0.00039844
-0.000330079
-0.000233092
-0.000100954
7.36162e-05
0.00029832
0.000580479
0.000925809
0.00133825
0.00181459
0.0023407
0.00288597
0.00339227
0.00378812
0.00396245
-0.000614246
-0.000646707
-0.00064776
-0.000647405
-0.000633676
-0.000604054
-0.000552995
-0.000473645
-0.000357747
-0.000195577
2.39705e-05
0.000312918
0.000683175
0.00114584
0.00170657
0.00235833
0.00307225
0.00378496
0.00437169
0.00472061
-0.00078652
-0.000825832
-0.000834912
-0.000848009
-0.000851517
-0.000842889
-0.000815871
-0.000762563
-0.000673095
-0.000535286
-0.00033428
-5.23069e-05
0.000331039
0.000833239
0.00147774
0.00227336
0.0032043
0.00421695
0.00510066
0.00585507
-0.000975936
-0.0010233
-0.00104167
-0.00107116
-0.00109612
-0.00111439
-0.00111931
-0.00110229
-0.00105233
-0.000955348
-0.000793467
-0.000544148
-0.000179579
0.000333232
0.00104439
0.00198497
0.00317556
0.0046073
0.00594902
0.00760143
-0.00118061
-0.00123724
-0.00126533
-0.00131405
-0.0013647
-0.00141615
-0.00146161
-0.00149243
-0.00149717
-0.00146082
-0.0013635
-0.0011783
-0.000867995
-0.000380005
0.00034225
0.00136689
0.00280505
0.00476691
0.00671837
0.0101686
-0.00139897
-0.00146874
-0.00150587
-0.00157791
-0.00165645
-0.00174535
-0.00183885
-0.0019291
-0.00200517
-0.0020529
-0.0020539
-0.0019829
-0.00180307
-0.00146118
-0.000877525
5.87219e-05
0.0015698
0.00408139
0.00662203
0.0130029
-0.00162497
-0.00168521
-0.00172872
-0.00181303
-0.00192759
-0.00206901
-0.00222867
-0.00239603
-0.00256112
-0.00271338
-0.00284006
-0.00292344
-0.00293586
-0.00283317
-0.00253875
-0.00192007
-0.000825003
0.00144208
0.00251644
0.0123261
-0.00188159
-0.00203437
-0.00206639
-0.00221988
-0.00235176
-0.00252274
-0.00271938
-0.00294321
-0.0031913
-0.0034594
-0.00374133
-0.00403544
-0.00434119
-0.00466517
-0.00501399
-0.00543039
-0.00623875
-0.00495996
-0.00723159
0.00534185
-0.00218273
-0.00211806
-0.00214258
-0.00220399
-0.00238123
-0.00263073
-0.00294507
-0.00330175
-0.00369235
-0.00411291
-0.00456739
-0.0050747
-0.00567493
-0.00643562
-0.00754714
-0.00911235
-0.0122826
-0.0132885
-0.0178202
-0.00474076
-0.00210413
-0.00269607
-0.00267743
-0.00304962
-0.00318574
-0.00345456
-0.00374707
-0.00410439
-0.00452188
-0.00501598
-0.00557306
-0.00626441
-0.00714503
-0.00832879
-0.0104556
-0.0130469
-0.0193191
-0.0247791
-0.0287202
-0.0104322
-0.0038716
-0.00259144
-0.00249974
-0.00224945
-0.00247675
-0.00286152
-0.00338537
-0.00396861
-0.00460564
-0.00528318
-0.00601482
-0.006819
-0.00787673
-0.0091006
-0.0116265
-0.0149315
-0.021825
-0.0288965
-0.0320307
-8.19084e-05
-0.000554418
-0.00376255
-0.00338002
-0.00421507
-0.00417845
-0.00453675
-0.0048705
-0.00534793
-0.00582289
-0.00656609
-0.007092
-0.00786938
-0.00890253
-0.00964211
-0.0128809
-0.0159264
-0.0227032
-0.0275137
-0.0197889
0.0345797
-0.0142339
-0.00177526
-0.00131429
-0.00140767
-0.00183314
-0.00240429
-0.00319181
-0.00394642
-0.00481454
-0.00560639
-0.00651025
-0.00726334
-0.00840823
-0.00955781
-0.0111805
-0.0126601
-0.0115496
0.00111808
0.0376558
0.129552
1.14059e-05
2.88257e-06
2.58718e-05
6.52884e-05
0.000125746
0.000207509
0.000311193
0.000437226
0.000585525
0.000755218
0.000944342
0.00114952
0.00136569
0.00158579
0.00180077
0.0019999
0.00217134
0.00230186
0.00238852
0.00240016
1.9836e-05
1.06349e-05
3.33292e-05
7.10842e-05
0.000129255
0.000208245
0.000308874
0.000431793
0.000577162
0.000744382
0.000931758
0.001136
0.00135268
0.00157471
0.001793
0.00199651
0.00217289
0.00230802
0.00239909
0.00241143
-6.20118e-06
-1.7313e-05
4.26417e-06
4.02627e-05
9.65454e-05
0.000173653
0.000272705
0.000394726
0.000540312
0.00070934
0.00090062
0.00111173
0.00133814
0.00157291
0.00180662
0.00202738
0.00222125
0.00237154
0.00247407
0.00248855
-5.13099e-05
-6.43112e-05
-4.43807e-05
-1.09606e-05
4.24694e-05
0.000116703
0.000213328
0.000333952
0.000479865
0.000651731
0.000849178
0.00107036
0.001312
0.00156726
0.00182638
0.00207595
0.00229944
0.00247595
0.00259854
0.00261897
-0.000119191
-0.000134608
-0.000116935
-8.69526e-05
-3.73363e-05
3.30348e-05
0.000126374
0.000245068
0.000391357
0.000567023
0.000772923
0.00100842
0.00127141
0.0015557
0.00185142
0.00214375
0.00241271
0.00263074
0.00278564
0.0028175
-0.000209105
-0.000227595
-0.000212951
-0.000187607
-0.00014327
-7.8438e-05
9.85985e-06
0.000124987
0.000270406
0.000449376
0.000664417
0.000916293
0.00120633
0.00152841
0.00187358
0.00222575
0.00256089
0.00284209
0.00304745
0.00310096
-0.000320435
-0.000342782
-0.00033216
-0.000313073
-0.000276091
-0.000219309
-0.000138892
-3.03366e-05
0.000111324
0.000291304
0.000514692
0.000786124
0.00110427
0.00147161
0.0018799
0.00231258
0.00274142
0.00311809
0.00340231
0.00349832
-0.000452449
-0.000479562
-0.000474183
-0.000463411
-0.000436515
-0.000391222
-0.000322783
-0.000225458
-9.25937e-05
8.32699e-05
0.000310071
0.00059541
0.000945309
0.00136418
0.00184921
0.0023865
0.00294516
0.00346588
0.00387452
0.00405767
-0.000604091
-0.000636996
-0.000638266
-0.000638289
-0.000624869
-0.000595482
-0.0005445
-0.000464959
-0.000348448
-0.000185027
3.67077e-05
0.00032918
0.00070485
0.00117551
0.00174764
0.00241491
0.00314865
0.00388449
0.00449331
0.00486056
-0.000773908
-0.000813734
-0.00082313
-0.000836774
-0.000840798
-0.000832654
-0.00080599
-0.000752786
-0.000662998
-0.000524196
-0.000321157
-3.55824e-05
0.000353658
0.000865162
0.00152375
0.00233988
0.00329913
0.00434777
0.0052688
0.00606369
-0.000960015
-0.00100799
-0.00102682
-0.00105712
-0.00108291
-0.00110206
-0.00110777
-0.00109138
-0.00104167
-0.00094432
-0.000781048
-0.000528726
-0.000158648
0.000363527
0.00109037
0.00205599
0.00328484
0.0047698
0.00617449
0.00790917
-0.00116017
-0.00121756
-0.00124631
-0.00129621
-0.00134816
-0.00140106
-0.00144802
-0.00148025
-0.0014862
-0.00145058
-0.00135316
-0.0011664
-0.000852127
-0.000356098
0.00038046
0.00143174
0.00291643
0.00494833
0.00700086
0.0105993
-0.0013723
-0.00144323
-0.00148133
-0.00155523
-0.00163564
-0.00172671
-0.00182259
-0.00191538
-0.00199408
-0.00204433
-0.00204751
-0.00197797
-0.00179824
-0.0014539
-0.000863619
8.94781e-05
0.00164441
0.00423002
0.00691862
0.0135381
-0.00158934
-0.00165069
-0.00169551
-0.00178199
-0.00189925
-0.0020441
-0.00220777
-0.00237958
-0.00254944
-0.00270675
-0.00283868
-0.00292759
-0.00294605
-0.00284986
-0.00256138
-0.0019435
-0.00081257
0.00143624
0.00262947
0.0127254
-0.00183423
-0.00198994
-0.0020237
-0.00218175
-0.00231755
-0.00249355
-0.00269567
-0.00292559
-0.00318051
-0.00345629
-0.00374717
-0.00405248
-0.00437325
-0.00471925
-0.00510506
-0.00558465
-0.00649532
-0.00533502
-0.00736512
0.00534227
-0.00212029
-0.00205842
-0.00208461
-0.00214962
-0.00233107
-0.00258673
-0.00290888
-0.00327465
-0.00367567
-0.00410806
-0.00457596
-0.0050999
-0.00572307
-0.00651819
-0.00769541
-0.00938015
-0.0127393
-0.0141636
-0.0182711
-0.00516313
-0.00201482
-0.00261679
-0.00259763
-0.00297992
-0.00312267
-0.00340157
-0.00370463
-0.00407396
-0.00450541
-0.00501533
-0.00558836
-0.00630056
-0.00720939
-0.00843322
-0.0106523
-0.0134017
-0.0200019
-0.0260005
-0.0294759
-0.0109646
-0.0037654
-0.00249419
-0.00240379
-0.00215827
-0.00238921
-0.00278304
-0.00332008
-0.00391836
-0.00457335
-0.00527129
-0.00602318
-0.00685024
-0.00793798
-0.00919771
-0.0118011
-0.0152705
-0.0223752
-0.0300075
-0.0325016
5.84244e-05
-0.00042363
-0.00365049
-0.00325456
-0.00409767
-0.00406399
-0.00443422
-0.00478327
-0.00528235
-0.00577801
-0.00655458
-0.00709585
-0.00789991
-0.00896051
-0.00969995
-0.0130138
-0.016119
-0.0228937
-0.0278788
-0.0192751
0.0359752
-0.014099
-0.00162686
-0.00115624
-0.00124826
-0.00168498
-0.00227359
-0.00308456
-0.00386549
-0.00475958
-0.00558404
-0.00650954
-0.0072936
-0.00845502
-0.00963867
-0.0112812
-0.0127823
-0.011586
0.00133575
0.0388436
0.131545
1.41509e-05
5.52686e-06
2.84692e-05
6.78466e-05
0.000128335
0.000210209
0.000314103
0.000440465
0.000589231
0.000759551
0.000949477
0.00115564
0.00137297
0.00159437
0.00181073
0.00201123
0.00218393
0.00231543
0.00240276
0.00241455
2.27683e-05
1.347e-05
3.612e-05
7.38338e-05
0.00013203
0.000211123
0.000311955
0.000435197
0.000581033
0.00074889
0.000937094
0.00114237
0.00136028
0.0015837
0.00180349
0.00200853
0.00218631
0.00232256
0.00241442
0.00242696
-2.96947e-06
-1.41801e-05
7.35341e-06
4.33077e-05
9.96131e-05
0.000176823
0.000276082
0.000398441
0.000544527
0.000714249
0.000906448
0.00111873
0.00134656
0.00158298
0.00181852
0.00204118
0.00223685
0.00238864
0.00249225
0.00250705
-4.76178e-05
-6.07218e-05
-4.08365e-05
-7.46732e-06
4.59794e-05
0.000120312
0.00021715
0.000338135
0.000484596
0.000657245
0.000855756
0.00107834
0.00132171
0.00157906
0.00184055
0.00209266
0.00231865
0.00249732
0.00262154
0.00264254
-0.0001149
-0.000130426
-0.000112804
-8.28846e-05
-3.3262e-05
3.72029e-05
0.000130761
0.000249844
0.000396748
0.000573318
0.000780485
0.00101769
0.00128287
0.00156987
0.0018688
0.00216467
0.00243728
0.00265857
0.00281601
0.00284893
-0.000204046
-0.000222652
-0.000208073
-0.000182814
-0.000138491
-7.35821e-05
1.49309e-05
0.00013047
0.000276571
0.000456585
0.000673155
0.000927248
0.00121994
0.00154556
0.00189509
0.0022523
0.00259283
0.0028791
0.00308855
0.00314402
-0.000314392
-0.000336866
-0.000326332
-0.000307368
-0.000270441
-0.000213623
-0.000133021
-2.4059e-05
0.000118325
0.000299465
0.000524582
0.000798401
0.00112016
0.00149216
0.00190638
0.00234619
0.00278305
0.00316769
0.00345859
0.0035583
-0.000445134
-0.000472393
-0.000467142
-0.000456555
-0.000429788
-0.000384541
-0.000315996
-0.000218326
-8.47575e-05
9.23287e-05
0.000321076
0.000609334
0.000963475
0.00138823
0.00188112
0.00242837
0.00299883
0.0035321
0.0039518
0.00414208
-0.000595121
-0.000628198
-0.000629658
-0.000629965
-0.000616798
-0.000587603
-0.000536674
-0.000456945
-0.000339865
-0.000175295
4.84309e-05
0.000344092
0.000724623
0.00120243
0.00178462
0.00246541
0.00321617
0.00397151
0.00459883
0.00497993
-0.000762759
-0.000802797
-0.000812475
-0.000826556
-0.000831024
-0.000823307
-0.00079697
-0.00074388
-0.000653835
-0.000514178
-0.000309365
-2.06326e-05
0.000373815
0.000893335
0.001564
0.00239751
0.00338047
0.00445862
0.00541029
0.00623354
-0.000945975
-0.000994223
-0.00101346
-0.00104442
-0.00107094
-0.00109087
-0.00109734
-0.00108156
-0.00103216
-0.000934586
-0.000770217
-0.000515422
-0.000140765
0.000389225
0.00112898
0.00211522
0.00337543
0.00490324
0.00635931
0.00814983
-0.00114227
-0.00120001
-0.00122935
-0.00128022
-0.00133329
-0.00138748
-0.00143582
-0.00146941
-0.00147656
-0.00144179
-0.00134451
-0.00115675
-0.000839522
-0.000337259
0.000410531
0.001483
0.00300502
0.00509273
0.00722832
0.0109249
-0.00134926
-0.0014208
-0.00145971
-0.00153507
-0.00161708
-0.00171005
-0.00180809
-0.00190326
-0.00198445
-0.00203716
-0.00204255
-0.00197474
-0.00179569
-0.00145015
-0.000855652
0.000108913
0.00169785
0.00434311
0.0071556
0.013933
-0.00155928
-0.00162102
-0.00166691
-0.00175513
-0.00187463
-0.00202238
-0.00218951
-0.00236526
-0.00253945
-0.00270141
-0.00283838
-0.00293282
-0.00295734
-0.0028676
-0.00258499
-0.00196681
-0.000785484
0.00143877
0.0027503
0.0130272
-0.00179565
-0.00195314
-0.00198797
-0.00214929
-0.00228804
-0.00246805
-0.00267473
-0.00290993
-0.00317092
-0.00345378
-0.00375311
-0.00406901
-0.00440364
-0.00476882
-0.00518425
-0.0057124
-0.00671872
-0.00563217
-0.00753534
0.00533879
-0.00206953
-0.00200892
-0.00203665
-0.00210455
-0.00228941
-0.00254999
-0.00287847
-0.00325187
-0.0036618
-0.00410464
-0.00458496
-0.0051246
-0.00576926
-0.00659505
-0.00782686
-0.00960248
-0.0131097
-0.0148183
-0.0186809
-0.00548885
-0.00195076
-0.00255949
-0.00253782
-0.00292638
-0.00307269
-0.00335866
-0.00366956
-0.00404852
-0.00449043
-0.00501311
-0.00560092
-0.00633262
-0.00726878
-0.00852963
-0.0108267
-0.0136921
-0.0205471
-0.0269233
-0.0301715
-0.0113366
-0.00368148
-0.00241509
-0.00232742
-0.00208629
-0.00232062
-0.00272091
-0.00326716
-0.00387736
-0.00454627
-0.0052605
-0.00603099
-0.00687996
-0.00799954
-0.00929439
-0.0119806
-0.0155651
-0.0229018
-0.0309365
-0.0332195
3.99745e-05
-0.000351867
-0.00358558
-0.00317331
-0.00402094
-0.00398473
-0.00436082
-0.00471771
-0.0052295
-0.00573978
-0.00653519
-0.00709568
-0.00792168
-0.00901364
-0.00976666
-0.0131597
-0.0163066
-0.0231884
-0.0283138
-0.0193279
0.0367641
-0.013997
-0.00152019
-0.00104355
-0.00113349
-0.00157537
-0.00217349
-0.00299893
-0.00379688
-0.00471086
-0.00555731
-0.00650805
-0.00731344
-0.00850879
-0.00971021
-0.0114065
-0.0129161
-0.0117591
0.00129459
0.0392559
0.132712
1.65423e-05
7.88844e-06
3.08185e-05
7.01978e-05
0.000130738
0.00021273
0.000316824
0.000443488
0.000592678
0.000763561
0.000954204
0.00116125
0.0013796
0.00160215
0.00181974
0.00202147
0.00219529
0.0023277
0.00241567
0.00242768
2.52713e-05
1.59402e-05
3.85781e-05
7.62933e-05
0.000134542
0.000213752
0.000314784
0.000438334
0.000584604
0.000753044
0.000941997
0.0011482
0.00136721
0.00159187
0.001813
0.00201939
0.00219844
0.00233573
0.00242833
0.00244114
-2.32208e-07
-1.1476e-05
1.00446e-05
4.59979e-05
0.000102354
0.000179682
0.00027915
0.000401832
0.000548385
0.000718744
0.000911778
0.00112511
0.00135421
0.00159211
0.00182926
0.0020536
0.00225089
0.00240402
0.00250863
0.00252381
-4.4514e-05
-5.76523e-05
-3.7783e-05
-4.42013e-06
4.90733e-05
0.000123524
0.000220578
0.000341909
0.000488884
0.000662252
0.000861729
0.00108556
0.00133048
0.00158967
0.00185325
0.00210759
0.00233579
0.00251637
0.00264202
0.00266362
-0.000111301
-0.000126865
-0.000109265
-7.93631e-05
-2.97033e-05
4.08739e-05
0.000134653
0.000254109
0.000401583
0.000578977
0.000787287
0.00102601
0.00129312
0.00158249
0.0018842
0.00218315
0.00245889
0.00268302
0.00284264
0.00287655
-0.000199804
-0.000218452