/*--------------------------------*- C++ -*----------------------------------*\
  =========                 |
  \\      /  F ield         | OpenFOAM: The Open Source CFD Toolbox
   \\    /   O peration     | Website:  https://openfoam.org
    \\  /    A nd           | Version:  9
     \\/     M anipulation  |
\*---------------------------------------------------------------------------*/
FoamFile
{
    format      ascii;
    class       surfaceScalarField;
    location    "5";
    object      phi;
}
// * * * * * * * * * * * * * * * * * * * * * * * * * * * * * * * * * * * * * //

dimensions      [0 3 -1 0 0 0 0];

internalField   nonuniform List<scalar> 
22800
(
-3.57846e-06
3.79274e-06
-2.13144e-07
-9.5161e-06
5.91844e-06
1.91991e-08
-1.57334e-05
6.14454e-06
7.27815e-08
-2.18465e-05
6.00675e-06
1.06324e-07
-2.7702e-05
5.74806e-06
1.0743e-07
-3.31807e-05
5.39008e-06
8.86287e-08
-3.81561e-05
4.92082e-06
5.4585e-08
-4.24848e-05
4.32408e-06
4.64166e-09
-4.60123e-05
3.58243e-06
-5.49539e-08
-4.85633e-05
2.68255e-06
-1.31582e-07
-4.99498e-05
1.61492e-06
-2.28345e-07
-4.99896e-05
3.7908e-07
-3.39283e-07
-4.84995e-05
-1.0291e-06
-4.61028e-07
-4.53443e-05
-2.56349e-06
-5.91719e-07
-4.045e-05
-4.17119e-06
-7.23146e-07
-3.38403e-05
-5.76646e-06
-8.43161e-07
-2.56778e-05
-7.23126e-06
-9.313e-07
-1.63452e-05
-8.37991e-06
-9.5264e-07
-6.67013e-06
-8.77142e-06
-9.03666e-07
-6.20437e-06
-4.65757e-07
-5.76907e-06
1.01528e-05
-5.90977e-07
-1.45381e-05
1.50534e-05
-3.65889e-07
-2.3616e-05
1.55214e-05
-2.98867e-07
-3.247e-05
1.50942e-05
-2.33424e-07
-4.08715e-05
1.43462e-05
-1.96719e-07
-4.86401e-05
1.33346e-05
-1.75854e-07
-5.5594e-05
1.20415e-05
-1.66777e-07
-6.15395e-05
1.04396e-05
-1.70082e-07
-6.62689e-05
8.49967e-06
-1.87861e-07
-6.95565e-05
6.19223e-06
-2.22082e-07
-7.11718e-05
3.50574e-06
-2.75543e-07
-7.09141e-05
4.70153e-07
-3.48725e-07
-6.85395e-05
-2.96468e-06
-4.39057e-07
-6.38881e-05
-6.67293e-06
-5.41984e-07
-5.68818e-05
-1.05265e-05
-6.50959e-07
-4.75653e-05
-1.433e-05
-7.52999e-07
-3.616e-05
-1.78125e-05
-8.24104e-07
-2.3173e-05
-2.05425e-05
-8.24398e-07
-9.70055e-06
-2.14875e-05
-7.56382e-07
-1.56449e-05
-2.60058e-07
-6.24413e-06
1.71247e-05
-7.27763e-07
-1.57053e-05
2.5021e-05
-5.06514e-07
-2.54847e-05
2.57348e-05
-4.33969e-07
-3.50192e-05
2.49859e-05
-3.57195e-07
-4.40727e-05
2.37082e-05
-3.08489e-07
-5.24597e-05
2.19962e-05
-2.74726e-07
-5.99926e-05
1.98268e-05
-2.52347e-07
-6.64715e-05
1.71612e-05
-2.42716e-07
-7.16801e-05
1.39569e-05
-2.48614e-07
-7.53895e-05
1.01745e-05
-2.72882e-07
-7.73544e-05
5.78757e-06
-3.16967e-07
-7.7301e-05
8.0225e-07
-3.85486e-07
-7.49767e-05
-4.81413e-06
-4.74855e-07
-7.01744e-05
-1.08923e-05
-5.82894e-07
-6.27609e-05
-1.72382e-05
-7.01742e-07
-5.27306e-05
-2.3543e-05
-8.1724e-07
-4.02762e-05
-2.93654e-05
-9.01411e-07
-2.59275e-05
-3.39836e-05
-9.07642e-07
-1.09064e-05
-3.5671e-05
-8.37532e-07
-2.62596e-05
-2.91662e-07
-6.471e-06
2.44548e-05
-8.59124e-07
-1.63416e-05
3.55357e-05
-6.44035e-07
-2.65574e-05
3.65188e-05
-5.68205e-07
-3.65445e-05
3.5456e-05
-4.83045e-07
-4.60701e-05
3.36592e-05
-4.25329e-07
-5.49542e-05
3.12623e-05
-3.81998e-07
-6.30136e-05
2.82362e-05
-3.49958e-07
-7.00496e-05
2.45284e-05
-3.3121e-07
-7.58418e-05
2.00783e-05
-3.29157e-07
-8.01445e-05
1.48247e-05
-3.47505e-07
-8.26864e-05
8.71915e-06
-3.89645e-07
-8.31806e-05
1.75606e-06
-4.5963e-07
-8.12852e-05
-6.14782e-06
-5.61668e-07
-7.66951e-05
-1.47962e-05
-6.86204e-07
-6.91706e-05
-2.39357e-05
-8.27039e-07
-5.86034e-05
-3.31418e-05
-9.68409e-07
-4.51207e-05
-4.17685e-05
-1.07959e-06
-2.92559e-05
-4.87451e-05
-1.10323e-06
-1.23929e-05
-5.14978e-05
-1.03614e-06
-3.82356e-05
-4.17026e-07
-6.73072e-06
3.21737e-05
-9.88144e-07
-1.70898e-05
4.66698e-05
-7.75011e-07
-2.78366e-05
4.79621e-05
-6.96625e-07
-3.83819e-05
4.66062e-05
-6.04842e-07
-4.8499e-05
4.43173e-05
-5.41102e-07
-5.80177e-05
4.12733e-05
-4.92256e-07
-6.67644e-05
3.74386e-05
-4.55646e-07
-7.45466e-05
3.27445e-05
-4.3397e-07
-8.11434e-05
2.71067e-05
-4.31568e-07
-8.62974e-05
2.04319e-05
-4.53274e-07
-8.97065e-05
1.26318e-05
-5.03561e-07
-9.10175e-05
3.65304e-06
-5.8598e-07
-8.9828e-05
-6.62247e-06
-7.14856e-07
-8.56878e-05
-1.80623e-05
-8.74117e-07
-7.81921e-05
-3.0371e-05
-1.06044e-06
-6.7045e-05
-4.30328e-05
-1.25617e-06
-5.22176e-05
-5.51732e-05
-1.42268e-06
-3.42158e-05
-6.52598e-05
-1.48719e-06
-1.46617e-05
-6.96183e-05
-1.4336e-06
-5.21994e-05
-6.97845e-07
-7.05804e-06
4.0369e-05
-1.13731e-06
-1.80318e-05
5.85677e-05
-9.24123e-07
-2.94464e-05
6.02198e-05
-8.43104e-07
-4.06913e-05
5.85955e-05
-7.44366e-07
-5.1548e-05
5.58489e-05
-6.74933e-07
-6.1861e-05
5.22078e-05
-6.2153e-07
-7.14725e-05
4.76321e-05
-5.82111e-07
-8.02036e-05
4.20359e-05
-5.60228e-07
-8.7841e-05
3.53054e-05
-5.61349e-07
-9.41213e-05
2.73042e-05
-5.91938e-07
-9.87155e-05
1.78843e-05
-6.58322e-07
-0.000101213
6.91696e-06
-7.66359e-07
-0.000101116
-5.78119e-06
-9.38626e-07
-9.7781e-05
-2.02421e-05
-1.15473e-06
-9.05676e-05
-3.6167e-05
-1.41745e-06
-7.88823e-05
-5.30101e-05
-1.708e-06
-6.24033e-05
-6.96751e-05
-1.97715e-06
-4.14953e-05
-8.4041e-05
-2.12676e-06
-1.81017e-05
-9.08994e-05
-2.11258e-06
-6.90845e-05
-1.21652e-06
-7.44982e-06
4.91425e-05
-1.32367e-06
-1.91648e-05
7.13935e-05
-1.11085e-06
-3.138e-05
7.34612e-05
-1.0262e-06
-4.34581e-05
7.15916e-05
-9.18019e-07
-5.51913e-05
6.84227e-05
-8.40552e-07
-6.64451e-05
6.42422e-05
-7.80594e-07
-7.70861e-05
5.90102e-05
-7.37122e-07
-8.6961e-05
5.26257e-05
-7.14942e-07
-9.58787e-05
4.49443e-05
-7.21175e-07
-0.000103587
3.57767e-05
-7.64738e-07
-0.000109741
2.4895e-05
-8.56037e-07
-0.000113874
1.2058e-05
-1.0085e-06
-0.000115404
-3.0133e-06
-1.23722e-06
-0.000113447
-2.06592e-05
-1.54063e-06
-0.000107027
-4.06594e-05
-1.92687e-06
-9.50961e-05
-6.25623e-05
-2.37919e-06
-7.68101e-05
-8.51239e-05
-2.83718e-06
-5.21194e-05
-0.000105569
-3.16267e-06
-2.33678e-05
-0.000116401
-3.24978e-06
-9.02641e-05
-2.18822e-06
-7.8996e-06
5.86046e-05
-1.56252e-06
-2.04784e-05
8.53248e-05
-1.35243e-06
-3.36175e-05
8.78622e-05
-1.26187e-06
-4.66467e-05
8.576e-05
-1.13926e-06
-5.93723e-05
8.21968e-05
-1.04849e-06
-7.16881e-05
7.7535e-05
-9.76907e-07
-8.34963e-05
7.17435e-05
-9.25124e-07
-9.46851e-05
6.47143e-05
-8.99753e-07
-0.000105107
5.62765e-05
-9.10183e-07
-0.000114548
4.6186e-05
-9.68583e-07
-0.000122682
3.41194e-05
-1.09027e-06
-0.000129007
1.96795e-05
-1.29614e-06
-0.000132891
2.48019e-06
-1.61004e-06
-0.000133173
-1.83309e-05
-2.04647e-06
-0.000128457
-4.27465e-05
-2.6288e-06
-0.000117019
-7.06468e-05
-3.35347e-06
-9.71338e-05
-0.000100853
-4.15592e-06
-6.77787e-05
-0.000130075
-4.84931e-06
-3.16814e-05
-0.000147319
-5.17954e-06
-0.000117937
-4.00831e-06
-8.40498e-06
6.8883e-05
-1.87337e-06
-2.19704e-05
0.000100561
-1.67038e-06
-3.61464e-05
0.000103608
-1.56931e-06
-5.02251e-05
0.000101262
-1.42348e-06
-6.40301e-05
9.73115e-05
-1.30981e-06
-7.74914e-05
9.22134e-05
-1.21709e-06
-9.05599e-05
8.59606e-05
-1.1485e-06
-0.000103185
7.84525e-05
-1.1131e-06
-0.000115291
6.95054e-05
-1.1232e-06
-0.000126741
5.88317e-05
-1.19507e-06
-0.000137287
4.60152e-05
-1.35e-06
-0.000146484
3.04923e-05
-1.61579e-06
-0.000153559
1.15765e-05
-2.02169e-06
-0.000157371
-1.18349e-05
-2.68402e-06
-0.000155852
-4.06959e-05
-3.56932e-06
-0.000146403
-7.53536e-05
-4.74178e-06
-0.000125882
-0.000115211
-6.16318e-06
-9.13442e-05
-0.000156988
-7.62458e-06
-4.55764e-05
-0.000184559
-8.52819e-06
-0.000155876
-7.63789e-06
-8.97322e-06
8.01411e-05
-2.28491e-06
-2.36579e-05
0.000117341
-2.09531e-06
-3.89753e-05
0.0001209
-1.97492e-06
-5.41799e-05
0.000118258
-1.79064e-06
-6.9114e-05
0.000113883
-1.63743e-06
-8.37524e-05
0.000108359
-1.50719e-06
-9.81085e-05
0.000101724
-1.40687e-06
-0.000112214
9.39064e-05
-1.34873e-06
-0.000126098
8.47386e-05
-1.34875e-06
-0.000139758
7.39202e-05
-1.42873e-06
-0.000153096
6.09727e-05
-1.61946e-06
-0.000165812
4.5172e-05
-1.96349e-06
-0.000177184
2.54671e-05
-2.51838e-06
-0.000186134
5.49642e-07
-3.43505e-06
-0.00019008
-3.19983e-05
-4.75105e-06
-0.000185362
-7.34244e-05
-6.64775e-06
-0.000166664
-0.000124746
-9.16392e-06
-0.000127613
-0.000183876
-1.21624e-05
-7.02383e-05
-0.000227479
-1.44542e-05
-0.000210756
-1.53584e-05
-9.63146e-06
9.2616e-05
-2.84341e-06
-2.55966e-05
0.000135981
-2.67504e-06
-4.21534e-05
0.000139975
-2.51801e-06
-5.8537e-05
0.00013691
-2.26838e-06
-7.46044e-05
0.000131998
-2.04721e-06
-9.0384e-05
0.00012599
-1.85203e-06
-0.000105964
0.000118998
-1.69507e-06
-0.000121474
0.000111009
-1.5923e-06
-0.000137077
0.000101906
-1.5636e-06
-0.000152951
9.14302e-05
-1.63628e-06
-0.000169239
7.91121e-05
-1.85101e-06
-0.000185961
6.41638e-05
-2.27003e-06
-0.000202828
4.53298e-05
-2.99614e-06
-0.000218819
2.07236e-05
-4.18206e-06
-0.000231658
-1.29385e-05
-6.22113e-06
-0.000236197
-5.96986e-05
-9.1871e-06
-0.000224474
-0.000122955
-1.35133e-05
-0.000184457
-0.000204529
-1.93646e-05
-0.000114965
-0.000272079
-2.48924e-05
-0.000293046
-3.26742e-05
-1.04456e-05
0.000106687
-3.62543e-06
-2.79193e-05
0.00015694
-3.48519e-06
-4.58039e-05
0.000161121
-3.2617e-06
-6.33961e-05
0.000157403
-2.90167e-06
-8.05455e-05
0.00015171
-2.56261e-06
-9.73488e-05
0.000145049
-2.25529e-06
-0.000113978
0.000137628
-2.0003e-06
-0.000130672
0.000129521
-1.81796e-06
-0.000147753
0.000120718
-1.73181e-06
-0.000165639
0.000111092
-1.77531e-06
-0.000184849
0.000100325
-2.00319e-06
-0.000205926
8.77537e-05
-2.51317e-06
-0.000229141
7.19948e-05
-3.44965e-06
-0.00025408
5.06456e-05
-4.98243e-06
-0.000279064
1.94904e-05
-7.44545e-06
-0.00029973
-2.72308e-05
-1.18016e-05
-0.000305085
-9.86462e-05
-1.89537e-05
-0.000274292
-0.000205331
-2.99906e-05
-0.000199035
-0.000305403
-4.19326e-05
-0.000421714
-7.03671e-05
-1.15149e-05
0.000122991
-4.78858e-06
-3.08377e-05
0.000180891
-4.62857e-06
-5.01261e-05
0.000184678
-4.26813e-06
-6.89819e-05
0.000179953
-3.69371e-06
-8.71034e-05
0.000172998
-3.16713e-06
-0.00010471
0.000165344
-2.68853e-06
-0.000122072
0.000157271
-2.28118e-06
-0.000139525
0.000148941
-1.96725e-06
-0.000157503
0.000140467
-1.771e-06
-0.000176608
0.00013192
-1.72299e-06
-0.000197708
0.000123297
-1.87234e-06
-0.000222023
0.000114374
-2.30501e-06
-0.000251153
0.00010431
-3.18597e-06
-0.000286641
9.10013e-05
-4.86716e-06
-0.000329011
6.99636e-05
-8.10337e-06
-0.00037505
3.26517e-05
-1.38442e-05
-0.000416265
-3.33398e-05
-2.40914e-05
-0.000417691
-0.000162524
-4.13811e-05
-0.000352658
-0.000309476
-6.09604e-05
-0.000647074
-0.000127298
-1.3864e-05
0.000143432
-6.57713e-06
-3.53178e-05
0.000209
-6.65557e-06
-5.59818e-05
0.000211356
-6.014e-06
-7.55029e-05
0.000204649
-5.17515e-06
-9.41892e-05
0.000195905
-4.22086e-06
-0.000112344
0.000186842
-3.34413e-06
-0.000130196
0.000177716
-2.59223e-06
-0.000148012
0.00016877
-2.01361e-06
-0.000166311
0.000160397
-1.63089e-06
-0.000185957
0.000153034
-1.46782e-06
-0.000208254
0.000147168
-1.57395e-06
-0.000235095
0.000143252
-2.0365e-06
-0.000269272
0.000141513
-3.02569e-06
-0.00031458
0.00014117
-4.86047e-06
-0.000375653
0.000139078
-8.0413e-06
-0.000454489
0.000123996
-1.25075e-05
-0.000550911
8.33282e-05
-2.0246e-05
-0.000617296
-6.32364e-05
-3.29022e-05
-0.000585407
-0.000313754
-2.76108e-05
-0.00110725
-0.000125234
-1.2861e-05
0.000165768
-9.47526e-06
-3.90577e-05
0.000243514
-8.31688e-06
-6.17682e-05
0.000241451
-7.38476e-06
-8.48041e-05
0.000233223
-5.53797e-06
-0.000104721
0.000220052
-4.22987e-06
-0.000123042
0.000208213
-3.04874e-06
-0.000140169
0.000196936
-2.09379e-06
-0.000156725
0.000186649
-1.32386e-06
-0.000173333
0.000177742
-7.36483e-07
-0.000190697
0.000170725
-3.26508e-07
-0.000210086
0.000166656
-9.85071e-08
-0.000233942
0.000167143
-3.61081e-08
-0.000266696
0.000174367
-1.00568e-07
-0.000315947
0.000190545
-1.23594e-07
-0.000394676
0.000217599
2.0733e-07
-0.000513674
0.000238822
4.17151e-06
-0.000691656
0.000245667
1.56427e-05
-0.000840722
4.31882e-05
4.2642e-05
-0.000806292
-0.000493608
0.000145424
-0.00190833
-5.2052e-06
-3.57337e-05
0.000215887
-1.43855e-05
-5.71533e-05
0.000279777
-1.48431e-05
-7.73304e-05
0.000274428
-1.28001e-05
-9.4068e-05
0.000260651
-1.06905e-05
-0.000111114
0.000244859
-7.76068e-06
-0.000128388
0.000230757
-5.27047e-06
-0.000145739
0.000217366
-3.0777e-06
-0.000162706
0.000204983
-1.36636e-06
-0.000179276
0.000194415
-1.03327e-07
-0.000195542
0.000186319
6.72174e-07
-0.000212567
0.000182568
1.11217e-06
-0.000232338
0.000185531
1.38355e-06
-0.000259937
0.000200033
1.93358e-06
-0.000302941
0.000229521
4.0289e-06
-0.000386194
0.000289983
1.08681e-05
-0.000522656
0.000341321
3.39639e-05
-0.000758033
0.000390072
9.09725e-05
-0.000957947
4.35517e-05
0.00019955
-0.000837062
-0.000975661
0.000361168
-0.00274889
3.49776e-06
2.75615e-06
0.000240648
-2.75167e-05
-4.72276e-05
0.000350377
-2.06169e-05
-8.28282e-05
0.000324303
-1.42745e-05
-0.000114105
0.000299245
-7.31728e-06
-0.000136144
0.000270455
-3.55727e-06
-0.000153467
0.000248296
-2.16813e-07
-0.000167086
0.000228751
2.23429e-06
-0.00017835
0.000212158
4.08875e-06
-0.000187809
0.000198521
5.35317e-06
-0.000195264
0.000187529
6.245e-06
-0.000199986
0.000180572
6.71812e-06
-0.000202874
0.00018085
7.56905e-06
-0.000206284
0.000193901
9.54207e-06
-0.00021757
0.000224443
1.63639e-05
-0.000269885
0.000307345
3.49532e-05
-0.000390441
0.000377597
8.42807e-05
-0.000657256
0.000455719
0.000201169
-0.000901901
-6.79337e-05
0.00035613
-0.000727561
-0.0015508
0.000400795
-0.00328082
-0.000195636
-9.46368e-05
0.000366205
-3.09207e-05
-9.84698e-05
0.00038623
-3.20203e-05
-0.000105366
0.000360558
-2.93588e-05
-0.000125783
0.000343966
-2.43032e-05
-0.000137905
0.000297295
-1.47175e-05
-0.000148476
0.000265776
-6.90912e-06
-0.000157406
0.000238029
-3.48608e-07
-0.000163602
0.000214169
4.1852e-06
-0.000168103
0.000195517
7.50489e-06
-0.000168519
0.000178586
9.35978e-06
-0.000165513
0.000167343
1.02223e-05
-0.000155625
0.00016037
1.05921e-05
-0.000141261
0.000167012
1.25245e-05
-0.000120317
0.000183079
2.04201e-05
-0.000102967
0.000246095
4.38995e-05
-0.000122343
0.000287164
0.000109809
-0.000197191
0.000310732
0.000219835
-0.000381782
-0.000256909
0.000373566
-0.000420531
-0.00182408
0.000312033
-0.00332356
-0.000377789
-0.000387019
0.000864912
-0.000111688
-0.000349131
0.000399895
-5.15528e-05
-0.000290307
0.000327569
-2.58354e-05
-0.000197144
0.000253908
-3.10437e-06
-0.000108552
0.000200722
7.98089e-06
-2.54566e-05
0.000163749
1.89318e-05
4.63343e-05
0.000140128
2.61104e-05
0.00010853
0.000121189
3.07842e-05
0.00016366
0.000107862
3.25245e-05
0.000210327
9.74549e-05
3.44639e-05
0.00026019
8.70197e-05
3.046e-05
0.000306477
8.52717e-05
2.8811e-05
0.00037358
7.55589e-05
2.43504e-05
0.00045665
8.4979e-05
1.503e-05
0.000595434
7.54538e-05
3.18574e-05
0.000768787
6.38482e-05
4.99623e-05
0.000993742
5.85031e-06
7.99266e-05
0.000920547
-0.000411686
0.000227973
0.000347499
-0.00142541
0.000174381
-0.00248446
-0.0004916
0.0009659
-0.000100988
0.00145944
-9.36422e-05
0.00187927
-9.22589e-05
0.00221487
-8.1695e-05
0.00248205
-6.64552e-05
0.00270016
-5.43667e-05
0.00287864
-3.83538e-05
0.00302762
-2.77932e-05
0.00315022
-1.47337e-05
0.00325032
-2.64393e-06
0.00333558
1.7626e-06
0.00340588
1.49726e-05
0.00347196
9.47789e-06
0.00353835
1.85819e-05
0.00359779
1.60209e-05
0.00365947
2.16957e-06
0.0036239
4.14113e-05
0.00326703
-5.48119e-05
0.0018495
-7.88741e-06
-0.000634958
-5.48818e-06
5.58975e-06
-3.14718e-07
-1.43039e-05
9.00139e-06
-1.66454e-07
-2.34517e-05
9.33551e-06
-1.14914e-07
-3.23131e-05
9.04257e-06
-7.48578e-08
-4.06826e-05
8.5409e-06
-6.40288e-08
-4.83953e-05
7.87507e-06
-7.37278e-08
-5.52754e-05
7.03537e-06
-1.00666e-07
-6.11329e-05
6.00682e-06
-1.4466e-07
-6.57576e-05
4.77592e-06
-2.06181e-07
-6.89322e-05
3.32943e-06
-2.86425e-07
-7.04353e-05
1.66054e-06
-3.85804e-07
-7.00467e-05
-2.2607e-07
-5.01828e-07
-6.7565e-05
-2.30904e-06
-6.3364e-07
-6.28435e-05
-4.5371e-06
-7.76153e-07
-5.58176e-05
-6.82916e-06
-9.1982e-07
-4.65405e-05
-9.0694e-06
-1.05094e-06
-3.52247e-05
-1.1098e-05
-1.14904e-06
-2.23439e-05
-1.26495e-05
-1.18399e-06
-9.08908e-06
-1.30074e-05
-1.15103e-06
-8.77256e-06
-7.8227e-07
-9.18268e-06
1.48164e-05
-6.34913e-07
-2.26667e-05
2.26302e-05
-5.10651e-07
-3.65028e-05
2.33166e-05
-4.43905e-07
-4.98099e-05
2.24926e-05
-3.76362e-07
-6.22627e-05
2.11316e-05
-3.34627e-07
-7.35977e-05
1.93453e-05
-3.11123e-07
-8.35514e-05
1.7126e-05
-3.0374e-07
-9.18539e-05
1.44529e-05
-3.13596e-07
-9.82276e-05
1.13046e-05
-3.42865e-07
-0.000102388
7.66172e-06
-3.94067e-07
-0.000104053
3.51979e-06
-4.69688e-07
-0.000102984
-1.07338e-06
-5.70367e-07
-9.89138e-05
-6.12819e-06
-6.90116e-07
-9.16857e-05
-1.14817e-05
-8.25514e-07
-8.12454e-05
-1.69539e-05
-9.66505e-07
-6.76918e-05
-2.22786e-05
-1.09751e-06
-5.13313e-05
-2.70885e-05
-1.19406e-06
-3.28172e-05
-3.07664e-05
-1.2216e-06
-1.37532e-05
-3.16518e-05
-1.17598e-06
-2.20463e-05
-7.39582e-07
-1.00637e-05
2.49273e-05
-7.74981e-07
-2.47614e-05
3.74851e-05
-6.63684e-07
-3.98121e-05
3.85246e-05
-5.91207e-07
-5.42747e-05
3.71092e-05
-5.11238e-07
-6.78077e-05
3.48137e-05
-4.57477e-07
-8.01354e-05
3.18197e-05
-4.21495e-07
-9.09829e-05
2.81225e-05
-4.0138e-07
-0.000100069
2.36957e-05
-3.99119e-07
-0.000107106
1.85103e-05
-4.1808e-07
-0.000111797
1.25422e-05
-4.61675e-07
-0.000113849
5.78713e-06
-5.32204e-07
-0.000112935
-1.74033e-06
-6.3256e-07
-0.000108779
-9.99983e-06
-7.5906e-07
-0.000101168
-1.87686e-05
-9.07437e-07
-8.99856e-05
-2.77706e-05
-1.06744e-06
-7.52743e-05
-3.65854e-05
-1.22168e-06
-5.7312e-05
-4.46107e-05
-1.34157e-06
-3.67842e-05
-5.08161e-05
-1.38581e-06
-1.54836e-05
-5.24432e-05
-1.34675e-06
-3.69564e-05
-8.65136e-07
-1.053e-05
3.55202e-05
-9.22032e-07
-2.59661e-05
5.31037e-05
-8.26544e-07
-4.17819e-05
5.4522e-05
-7.49813e-07
-5.70092e-05
5.25131e-05
-6.59608e-07
-7.13074e-05
4.92814e-05
-5.94862e-07
-8.44051e-05
4.50829e-05
-5.47475e-07
-9.60304e-05
3.99146e-05
-5.16656e-07
-0.000105902
3.37418e-05
-5.05449e-07
-0.000113724
2.65211e-05
-5.17849e-07
-0.000119182
1.82111e-05
-5.58309e-07
-0.000121944
8.79082e-06
-6.31364e-07
-0.000121671
-1.73137e-06
-7.42197e-07
-0.000117957
-1.3387e-05
-8.88337e-07
-0.000110482
-2.58635e-05
-1.06616e-06
-9.89995e-05
-3.88157e-05
-1.26458e-06
-8.343e-05
-5.16594e-05
-1.46391e-06
-6.3969e-05
-6.35204e-05
-1.63085e-06
-4.13094e-05
-7.28661e-05
-1.71281e-06
-1.74846e-05
-7.5611e-05
-1.69305e-06
-5.3715e-05
-1.14295e-06
-1.10748e-05
4.66859e-05
-1.07907e-06
-2.73934e-05
6.96463e-05
-9.99064e-07
-4.41374e-05
7.14874e-05
-9.17972e-07
-6.03032e-05
6.88921e-05
-8.18082e-07
-7.55545e-05
6.47355e-05
-7.43863e-07
-8.96298e-05
5.93534e-05
-6.87541e-07
-0.000102267
5.27449e-05
-6.49156e-07
-0.00011319
4.48637e-05
-6.32889e-07
-0.0001221
3.56446e-05
-6.44528e-07
-0.000128666
2.50136e-05
-6.9039e-07
-0.000132509
1.29076e-05
-7.76626e-07
-0.000133225
-6.91928e-07
-9.10013e-07
-0.000130295
-1.59358e-05
-1.09535e-06
-0.000123237
-3.24692e-05
-1.32714e-06
-0.000111594
-4.99234e-05
-1.59588e-06
-9.5056e-05
-6.75737e-05
-1.87934e-06
-7.36343e-05
-8.42296e-05
-2.13517e-06
-4.79875e-05
-9.77073e-05
-2.29284e-06
-2.05043e-05
-0.000102212
-2.31632e-06
-7.32561e-05
-1.66104e-06
-1.17707e-05
5.85856e-05
-1.26634e-06
-2.92093e-05
8.73643e-05
-1.20356e-06
-4.71294e-05
8.96813e-05
-1.11694e-06
-6.44796e-05
8.65033e-05
-1.00541e-06
-8.09305e-05
8.14317e-05
-9.20183e-07
-9.62362e-05
7.48916e-05
-8.53952e-07
-0.000110152
6.68869e-05
-8.07981e-07
-0.000122419
5.73579e-05
-7.87976e-07
-0.000132744
4.62098e-05
-8.01614e-07
-0.000140784
3.33196e-05
-8.57688e-07
-0.000146123
1.85535e-05
-9.65001e-07
-0.000148291
1.83786e-06
-1.12867e-06
-0.000146613
-1.717e-05
-1.38156e-06
-0.000140385
-3.81535e-05
-1.69858e-06
-0.000128848
-6.07973e-05
-2.08055e-06
-0.000111322
-8.43038e-05
-2.50448e-06
-8.74573e-05
-0.000107155
-2.91637e-06
-5.77448e-05
-0.000126329
-3.21764e-06
-2.50549e-05
-0.000133681
-3.33285e-06
-9.69916e-05
-2.53592e-06
-1.26255e-05
7.139e-05
-1.50254e-06
-3.14351e-05
0.000106524
-1.46149e-06
-5.07853e-05
0.000109372
-1.36672e-06
-6.95648e-05
0.000105604
-1.23877e-06
-8.74547e-05
9.96186e-05
-1.13758e-06
-0.000104233
9.19461e-05
-1.05671e-06
-0.000119685
8.26011e-05
-9.99259e-07
-0.000133583
7.15137e-05
-9.7304e-07
-0.000145661
5.85549e-05
-9.88389e-07
-0.000155587
4.35385e-05
-1.05778e-06
-0.000162927
2.62332e-05
-1.19537e-06
-0.000167093
6.41562e-06
-1.42011e-06
-0.000167352
-1.64002e-05
-1.74854e-06
-0.000162652
-4.22048e-05
-2.1887e-06
-0.000151819
-7.08129e-05
-2.74482e-06
-0.000133594
-0.000101512
-3.39655e-06
-0.000106974
-0.000132533
-4.07826e-06
-7.19497e-05
-0.000159867
-4.64915e-06
-3.19976e-05
-0.000171928
-4.95515e-06
-0.000127174
-4.00373e-06
-1.36432e-05
8.52784e-05
-1.80771e-06
-3.40829e-05
0.000127407
-1.79561e-06
-5.51154e-05
0.000130831
-1.68786e-06
-7.55571e-05
0.000126441
-1.53498e-06
-9.51042e-05
0.000119526
-1.40856e-06
-0.000113569
0.000110738
-1.30373e-06
-0.000130785
0.000100118
-1.22629e-06
-0.000146577
8.75926e-05
-1.18694e-06
-0.000160735
7.30027e-05
-1.19951e-06
-0.000172974
5.60902e-05
-1.28137e-06
-0.000182874
3.64971e-05
-1.45406e-06
-0.000189802
1.37931e-05
-1.74614e-06
-0.000192921
-1.27061e-05
-2.18472e-06
-0.000190844
-4.35297e-05
-2.79877e-06
-0.000181838
-7.8833e-05
-3.61474e-06
-0.000163786
-0.000118289
-4.62764e-06
-0.000134555
-0.000160152
-5.7691e-06
-9.29339e-05
-0.000199488
-6.84913e-06
-4.30362e-05
-0.000219465
-7.5402e-06
-0.000167707
-6.51087e-06
-1.48359e-05
0.00010045
-2.2086e-06
-3.71805e-05
0.000150317
-2.23573e-06
-6.01468e-05
0.000154334
-2.10645e-06
-8.24669e-05
0.000149252
-1.91441e-06
-0.000103858
0.000141354
-1.74707e-06
-0.00012418
0.000131445
-1.60231e-06
-0.000143333
0.000119612
-1.48984e-06
-0.000161227
0.000105798
-1.42409e-06
-0.00017775
8.9825e-05
-1.42316e-06
-0.000192712
7.13677e-05
-1.51016e-06
-0.00020578
4.99301e-05
-1.71501e-06
-0.000216363
2.48378e-05
-2.07797e-06
-0.000223596
-4.8416e-06
-2.65244e-06
-0.000225774
-4.05257e-05
-3.51022e-06
-0.000220524
-8.29532e-05
-4.69967e-06
-0.000204553
-0.000132733
-6.26899e-06
-0.000173877
-0.000188811
-8.17998e-06
-0.000124859
-0.00024591
-1.02199e-05
-6.18897e-05
-0.000279251
-1.17119e-05
-0.000226326
-1.09086e-05
-1.62325e-05
0.000117142
-2.74445e-06
-4.07883e-05
0.000175602
-2.82437e-06
-6.59427e-05
0.000180172
-2.65866e-06
-9.03366e-05
0.000174259
-2.404e-06
-0.000113713
0.000165262
-2.16999e-06
-0.000135996
0.000154181
-1.9593e-06
-0.000157179
0.000141176
-1.78719e-06
-0.000177292
0.000126235
-1.67268e-06
-0.000196369
0.000109192
-1.63876e-06
-0.000214397
8.96821e-05
-1.71521e-06
-0.000231235
6.70909e-05
-1.9427e-06
-0.000246461
4.04771e-05
-2.3767e-06
-0.000259267
8.5311e-06
-3.08466e-06
-0.000267985
-3.0995e-05
-4.24795e-06
-0.000269606
-8.01373e-05
-5.94571e-06
-0.000259402
-0.000141243
-8.34249e-06
-0.000230602
-0.000215265
-1.15089e-05
-0.000175324
-0.000298048
-1.53025e-05
-9.68146e-05
-0.000353758
-1.84567e-05
-0.00031927
-1.9229e-05
-1.78912e-05
0.000135666
-3.47645e-06
-4.50224e-05
0.000203684
-3.62589e-06
-7.26262e-05
0.000208655
-3.39741e-06
-9.92655e-05
0.000201671
-3.04098e-06
-0.00012471
0.000191358
-2.69855e-06
-0.000148968
0.000178968
-2.38063e-06
-0.000172154
0.000164776
-2.1101e-06
-0.000194451
0.000148851
-1.91117e-06
-0.00021609
0.000131079
-1.81142e-06
-0.000237312
0.000111114
-1.8464e-06
-0.000258299
8.82941e-05
-2.06703e-06
-0.000279056
6.15146e-05
-2.55041e-06
-0.000299172
2.90761e-05
-3.42503e-06
-0.000317518
-1.19296e-05
-4.90198e-06
-0.000330645
-6.59915e-05
-7.23941e-06
-0.000332669
-0.000137646
-1.07602e-05
-0.000313336
-0.000232254
-1.5857e-05
-0.00025785
-0.000350206
-2.26921e-05
-0.000164852
-0.000442309
-2.9339e-05
-0.000480856
-3.59408e-05
-1.99281e-05
0.000156471
-4.50266e-06
-5.01106e-05
0.000235121
-4.73917e-06
-8.04277e-05
0.000240114
-4.4039e-06
-0.000109449
0.000231673
-3.88177e-06
-0.000136965
0.000219673
-3.36253e-06
-0.000163097
0.000205716
-2.87123e-06
-0.000188106
0.000190227
-2.44204e-06
-0.000212364
0.000173396
-2.10497e-06
-0.000236354
0.000155229
-1.89117e-06
-0.000260672
0.000135497
-1.84063e-06
-0.000286016
0.00011365
-2.01472e-06
-0.000313077
8.85802e-05
-2.51827e-06
-0.00034209
5.815e-05
-3.51044e-06
-0.000372563
1.87548e-05
-5.19419e-06
-0.000403284
-3.47015e-05
-8.01425e-06
-0.000428147
-0.000111706
-1.28788e-05
-0.000434498
-0.000224143
-2.07135e-05
-0.000398441
-0.000383692
-3.25625e-05
-0.000303363
-0.000533541
-4.57786e-05
-0.000785756
-6.88297e-05
-2.24139e-05
0.000180094
-5.99777e-06
-5.63055e-05
0.000270688
-6.30442e-06
-8.96312e-05
0.000274948
-5.77578e-06
-0.000121252
0.000264563
-4.96282e-06
-0.000150764
0.000250186
-4.16746e-06
-0.000178504
0.00023418
-3.41263e-06
-0.000204935
0.000217119
-2.7418e-06
-0.000230629
0.000199312
-2.18876e-06
-0.00025629
0.000180902
-1.7839e-06
-0.000282829
0.000161873
-1.55992e-06
-0.000311482
0.000141996
-1.56478e-06
-0.000343933
0.00012061
-1.88313e-06
-0.000382372
9.60855e-05
-2.68243e-06
-0.000429134
6.49694e-05
-4.31998e-06
-0.000485281
2.09032e-05
-7.56043e-06
-0.000547799
-4.95308e-05
-1.3502e-05
-0.000608463
-0.000163537
-2.40322e-05
-0.000627604
-0.000364302
-4.16314e-05
-0.000547362
-0.000611907
-6.28361e-05
-0.00134704
-0.000113373
-2.71976e-05
0.000208937
-8.22253e-06
-6.52462e-05
0.000310857
-8.77557e-06
-0.000101557
0.00031316
-7.91513e-06
-0.000134881
0.000299434
-6.72227e-06
-0.000165866
0.000282367
-5.41658e-06
-0.0001949
0.000264035
-4.16558e-06
-0.00022246
0.000245133
-3.04661e-06
-0.000249132
0.000226092
-2.12233e-06
-0.000275857
0.000207418
-1.42252e-06
-0.000304009
0.000189523
-9.66077e-07
-0.000335498
0.000172693
-7.81981e-07
-0.000373003
0.000157005
-9.26149e-07
-0.000420426
0.000142013
-1.53043e-06
-0.000483184
0.000125751
-2.88417e-06
-0.000567562
0.000102775
-5.536e-06
-0.000678816
5.91034e-05
-9.88701e-06
-0.000815478
-2.87827e-05
-1.83391e-05
-0.000902943
-0.00027785
-3.18882e-05
-0.000788648
-0.000715861
-3.79515e-05
-0.00215559
-0.000105332
-2.55602e-05
0.000236666
-1.16437e-05
-7.21897e-05
0.000360644
-1.14747e-05
-0.000113601
0.000357301
-1.01143e-05
-0.000153094
0.000341196
-7.80807e-06
-0.000186462
0.000317419
-5.91302e-06
-0.000216097
0.00029476
-4.13874e-06
-0.000242961
0.000272517
-2.61345e-06
-0.000268297
0.000251426
-1.3218e-06
-0.000293279
0.000231932
-2.67769e-07
-0.000319253
0.000214587
5.83311e-07
-0.000348309
0.000200382
1.26963e-06
-0.000384193
0.000190977
1.87535e-06
-0.000433228
0.00018843
2.51732e-06
-0.000505909
0.000194932
3.3765e-06
-0.000617804
0.00021023
4.64805e-06
-0.000775157
0.000212292
8.33608e-06
-0.000974052
0.000168836
1.69189e-05
-0.00106313
-0.000185639
3.95044e-05
-0.000770777
-0.000961406
9.86196e-05
-0.00291526
-1.63163e-05
-6.08973e-05
0.000299952
-1.67746e-05
-0.000101454
0.000404208
-1.78501e-05
-0.000139198
0.000397814
-1.55695e-05
-0.000170695
0.000374812
-1.28103e-05
-0.000201096
0.000349473
-9.41351e-06
-0.000230178
0.000324883
-6.31154e-06
-0.000257958
0.00030072
-3.50046e-06
-0.000284324
0.000277604
-1.17776e-06
-0.00030984
0.000256666
6.78402e-07
-0.000335413
0.000238712
2.11904e-06
-0.000363014
0.000225827
3.26827e-06
-0.000395927
0.000220839
4.43446e-06
-0.000441036
0.000229274
6.19791e-06
-0.000507379
0.000255575
9.73029e-06
-0.000617671
0.000313428
1.79617e-05
-0.000762462
0.00035132
3.97275e-05
-0.000935013
0.00034427
8.80882e-05
-0.000987358
-0.000118676
0.000184933
-0.000554654
-0.0013047
0.000271753
-0.00344594
-2.04748e-05
-8.716e-06
0.000310215
-2.90635e-05
-9.32706e-05
0.000493304
-2.51582e-05
-0.000156014
0.000465387
-1.91034e-05
-0.000206179
0.000429474
-1.18152e-05
-0.000242421
0.000389211
-7.05347e-06
-0.000270806
0.000355551
-2.5001e-06
-0.000293297
0.000324439
1.00624e-06
-0.000312012
0.000296648
3.75862e-06
-0.000328017
0.000272114
5.91055e-06
-0.000342076
0.000251348
7.66915e-06
-0.000353359
0.000234724
9.10362e-06
-0.000364442
0.000228342
1.11493e-05
-0.000378034
0.000237638
1.47705e-05
-0.000399307
0.000269801
2.34106e-05
-0.000456949
0.000362309
4.37148e-05
-0.000540587
0.000428013
9.12244e-05
-0.00066217
0.000474399
0.000192624
-0.000722727
-4.39263e-05
0.000341937
-0.000342346
-0.00160693
0.000322651
-0.00380305
-0.000180871
-7.12768e-05
0.000383984
-3.34131e-05
-9.50276e-05
0.000520828
-3.57932e-05
-0.000139792
0.000513153
-3.23603e-05
-0.000202324
0.000493681
-2.59776e-05
-0.000243673
0.000432436
-1.65932e-05
-0.000274767
0.000388277
-8.54143e-06
-0.000296134
0.000346996
-1.5387e-06
-0.000309193
0.00031008
3.81263e-06
-0.00031738
0.000279937
7.86832e-06
-0.000319461
0.000252112
1.06758e-05
-0.000318337
0.000231145
1.26771e-05
-0.000310208
0.000216127
1.46785e-05
-0.000299302
0.000220451
1.88051e-05
-0.000273181
0.000234706
2.93945e-05
-0.000234631
0.000312828
5.48312e-05
-0.000176653
0.000362029
0.000117814
-3.45526e-05
0.000342219
0.000209914
-4.32157e-06
-7.02883e-05
0.000369697
0.000184372
-0.00174089
0.000257302
-0.00370036
-0.000296107
-0.000616853
0.00097549
-8.63415e-05
-0.000639768
0.000541334
-4.91436e-05
-0.000600474
0.000477779
-2.97556e-05
-0.00049245
0.000394165
-1.16123e-05
-0.000380674
0.00032975
-1.10897e-06
-0.00026381
0.000280774
9.57034e-06
-0.000152951
0.000244953
1.72948e-05
-4.96427e-05
0.000214441
2.3115e-05
4.79563e-05
0.000188298
2.65647e-05
0.000134272
0.000170166
3.0095e-05
0.000221857
0.000145737
2.8283e-05
0.000298809
0.000139288
2.86982e-05
0.000395519
0.000121621
2.64701e-05
0.00049779
0.000124316
2.31481e-05
0.000681961
0.000122418
3.80959e-05
0.000925967
0.000107387
6.0599e-05
0.00126449
9.14592e-06
7.44755e-05
0.00148705
-0.000257069
0.000192198
0.0011729
-0.00139111
0.000138747
-0.00266754
-0.000351519
0.000953769
-7.9266e-05
0.00148041
-7.89534e-05
0.00194522
-7.92859e-05
0.0023314
-7.37069e-05
0.00265872
-6.40325e-05
0.00294046
-5.53262e-05
0.00318948
-4.24228e-05
0.00340869
-3.25627e-05
0.00360359
-2.13359e-05
0.00377902
-7.90388e-06
0.00392976
-3.24072e-06
0.00407345
1.05712e-05
0.00419375
1.07953e-05
0.00432331
1.33329e-05
0.00443656
2.51933e-05
0.00454687
-7.5674e-07
0.00455519
4.22369e-05
0.00428233
-3.90193e-05
0.00290459
-2.12587e-05
-0.000397909
-5.7811e-06
5.81824e-06
-3.51859e-07
-1.50783e-05
9.45387e-06
-3.23163e-07
-2.47132e-05
9.80816e-06
-2.88137e-07
-3.40239e-05
9.48894e-06
-2.53099e-07
-4.27961e-05
8.94452e-06
-2.36302e-07
-5.08592e-05
8.22453e-06