/*--------------------------------*- C++ -*----------------------------------*\
  =========                 |
  \\      /  F ield         | OpenFOAM: The Open Source CFD Toolbox
   \\    /   O peration     | Website:  https://openfoam.org
    \\  /    A nd           | Version:  9
     \\/     M anipulation  |
\*---------------------------------------------------------------------------*/
FoamFile
{
    format      ascii;
    class       volVectorField;
    location    "5";
    object      U;
}
// * * * * * * * * * * * * * * * * * * * * * * * * * * * * * * * * * * * * * //

dimensions      [0 1 -1 0 0 0 0];

internalField   nonuniform List<vector> 
8000
(
(-0.000126363 0.000134933 -1.28248e-05)
(-0.000611128 0.00022804 7.15859e-06)
(-0.00127341 0.000239374 1.11096e-05)
(-0.00188413 0.000236102 1.33864e-05)
(-0.00248525 0.000228594 1.31724e-05)
(-0.00305436 0.000217595 1.14815e-05)
(-0.0035793 0.000202305 8.7261e-06)
(-0.00404685 0.000181736 4.96877e-06)
(-0.00444213 0.000154819 1.81305e-08)
(-0.00474861 0.00012077 -5.91997e-06)
(-0.00494808 7.92646e-05 -1.26937e-05)
(-0.00502191 3.01223e-05 -2.04936e-05)
(-0.0049515 -2.74804e-05 -2.90592e-05)
(-0.00472056 -9.18544e-05 -3.82498e-05)
(-0.00431823 -0.000160322 -4.7495e-05)
(-0.00374149 -0.000229023 -5.59434e-05)
(-0.00299681 -0.000292628 -6.20982e-05)
(-0.00212848 -0.000342857 -6.33009e-05)
(-0.00110369 -0.000360365 -5.91874e-05)
(-0.000267004 -0.00024653 -2.5798e-05)
(-0.000221301 0.000646706 -4.19274e-05)
(-0.000960213 0.000984471 -2.28243e-05)
(-0.00192338 0.00101898 -1.77243e-05)
(-0.00281357 0.000993841 -1.30344e-05)
(-0.00368063 0.000948115 -1.05024e-05)
(-0.00449289 0.000885463 -9.08635e-06)
(-0.00523242 0.000804288 -8.43904e-06)
(-0.00588083 0.000702321 -8.58826e-06)
(-0.00641804 0.000577175 -9.67559e-06)
(-0.00682227 0.000426918 -1.18185e-05)
(-0.00707066 0.000249913 -1.52071e-05)
(-0.00714175 4.53557e-05 -1.99258e-05)
(-0.00701271 -0.000184141 -2.56754e-05)
(-0.00666272 -0.000433313 -3.23191e-05)
(-0.00607961 -0.000693088 -3.94175e-05)
(-0.00526088 -0.000949952 -4.60863e-05)
(-0.00421654 -0.00118525 -5.05927e-05)
(-0.00300388 -0.00136943 -4.99427e-05)
(-0.00158468 -0.00143222 -4.42249e-05)
(-0.00040051 -0.0010272 -6.91956e-06)
(-0.000239948 0.00136436 -5.19351e-05)
(-0.00103847 0.00200191 -3.29679e-05)
(-0.0020767 0.00206064 -2.74578e-05)
(-0.00303534 0.0020014 -2.19312e-05)
(-0.00396944 0.0018994 -1.85174e-05)
(-0.00484544 0.00176224 -1.61492e-05)
(-0.00564502 0.00158797 -1.45019e-05)
(-0.0063492 0.00137337 -1.36522e-05)
(-0.00693717 0.00111501 -1.37902e-05)
(-0.00738672 0.000809793 -1.51022e-05)
(-0.00767423 0.000455338 -1.76667e-05)
(-0.00777348 5.12187e-05 -2.18312e-05)
(-0.00765766 -0.000398571 -2.73536e-05)
(-0.00730341 -0.000884995 -3.41297e-05)
(-0.00669319 -0.00139131 -4.1664e-05)
(-0.00581906 -0.00189184 -4.90045e-05)
(-0.00468606 -0.002351 -5.41485e-05)
(-0.00335411 -0.00271219 -5.3633e-05)
(-0.00177886 -0.00283968 -4.75188e-05)
(-0.000452489 -0.00208155 -6.58981e-06)
(-0.000246908 0.00207116 -6.1106e-05)
(-0.00107812 0.00301555 -4.23709e-05)
(-0.00216295 0.00309984 -3.66393e-05)
(-0.00316527 0.0030093 -3.05342e-05)
(-0.00414588 0.00285565 -2.64959e-05)
(-0.00507036 0.00265019 -2.34561e-05)
(-0.00592111 0.00239028 -2.1119e-05)
(-0.00667951 0.00207133 -1.9601e-05)
(-0.00732465 0.0016882 -1.91256e-05)
(-0.00783328 0.00123588 -1.99343e-05)
(-0.00817969 0.000710792 -2.225e-05)
(-0.00833609 0.000112126 -2.63849e-05)
(-0.00827046 -0.000557363 -3.25304e-05)
(-0.00794983 -0.00128706 -4.01455e-05)
(-0.00734636 -0.00205412 -4.88277e-05)
(-0.00644147 -0.00282157 -5.75359e-05)
(-0.00523006 -0.00353517 -6.41041e-05)
(-0.00377265 -0.00410558 -6.43327e-05)
(-0.0020171 -0.0043215 -5.80053e-05)
(-0.000517548 -0.00319595 -1.20101e-05)
(-0.000254457 0.00282202 -6.97734e-05)
(-0.00112398 0.00409515 -5.08859e-05)
(-0.00226511 0.00420821 -4.50013e-05)
(-0.00332098 0.00408739 -3.84905e-05)
(-0.00435939 0.0038832 -3.40952e-05)
(-0.00534516 0.00361106 -3.0733e-05)
(-0.00626197 0.00326766 -2.81259e-05)
(-0.00709202 0.00284688 -2.6427e-05)
(-0.00781481 0.00234145 -2.59126e-05)
(-0.00840655 0.00174363 -2.68901e-05)
(-0.00883947 0.00104645 -2.96348e-05)
(-0.00908109 0.000245774 -3.4363e-05)
(-0.00909335 -0.000656746 -4.21462e-05)
(-0.00883294 -0.00165186 -5.17713e-05)
(-0.00825639 -0.00271328 -6.30764e-05)
(-0.00732717 -0.00379422 -7.49052e-05)
(-0.00602015 -0.00481997 -8.45723e-05)
(-0.00439127 -0.00565945 -8.68434e-05)
(-0.00237732 -0.0060051 -8.07195e-05)
(-0.000619163 -0.00448066 -2.68728e-05)
(-0.000263975 0.0036156 -7.96438e-05)
(-0.00118175 0.00524332 -6.03758e-05)
(-0.00239373 0.00538973 -5.43555e-05)
(-0.00351682 0.00524092 -4.74574e-05)
(-0.00462756 0.00498931 -4.27784e-05)
(-0.00568996 0.00465492 -3.92154e-05)
(-0.00668963 0.00423386 -3.65159e-05)
(-0.0076103 0.00371826 -3.48748e-05)
(-0.00843257 0.00309816 -3.4629e-05)
(-0.00913288 0.00236201 -3.61772e-05)
(-0.00968195 0.00149791 -3.98859e-05)
(-0.0100434 0.000495772 -4.60339e-05)
(-0.0101718 -0.000649076 -5.65679e-05)
(-0.0100097 -0.00193314 -6.95753e-05)
(-0.00949207 -0.00333096 -8.53997e-05)
(-0.00855568 -0.00478854 -0.000102816)
(-0.00714189 -0.00620942 -0.000118415)
(-0.00528931 -0.00741155 -0.000125255)
(-0.00291636 -0.00795583 -0.000120607)
(-0.000777842 -0.00600359 -5.56841e-05)
(-0.000275153 0.00446149 -9.19264e-05)
(-0.00125109 0.00647548 -7.22285e-05)
(-0.00254847 0.00666066 -6.60374e-05)
(-0.00375175 0.00648642 -5.86287e-05)
(-0.0049484 0.00619102 -5.35614e-05)
(-0.00610149 0.00579992 -4.97229e-05)
(-0.00719947 0.0053089 -4.69107e-05)
(-0.00822863 0.0047084 -4.53854e-05)
(-0.00917201 0.00398534 -4.55745e-05)
(-0.0100078 0.00312323 -4.80245e-05)
(-0.0107067 0.00210304 -5.33782e-05)
(-0.011229 0.000905382 -6.25426e-05)
(-0.0115232 -0.000485105 -7.63495e-05)
(-0.0115157 -0.00207825 -9.46021e-05)
(-0.0111133 -0.00385821 -0.000117909)
(-0.0102135 -0.00577192 -0.000145118)
(-0.00870474 -0.00770358 -0.000171997)
(-0.00657947 -0.00941273 -0.000188836)
(-0.00372524 -0.0102702 -0.000189064)
(-0.00103054 -0.00787658 -0.000110279)
(-0.000287523 0.00537042 -0.000107624)
(-0.00133117 0.00780891 -8.75822e-05)
(-0.00272802 0.00803851 -8.11131e-05)
(-0.00402309 0.00784083 -7.29197e-05)
(-0.00531738 0.00750501 -6.71818e-05)
(-0.00657282 0.00706315 -6.28075e-05)
(-0.00778183 0.00651135 -5.96845e-05)
(-0.00893462 0.00583887 -5.81731e-05)
(-0.0100186 0.00502959 -5.88299e-05)
(-0.0110161 0.00406147 -6.23942e-05)
(-0.0119008 0.00290647 -6.981e-05)
(-0.0126325 0.00153183 -8.24192e-05)
(-0.0131564 -9.70296e-05 -0.000101795)
(-0.0133838 -0.00200624 -0.000128267)
(-0.0131876 -0.00421101 -0.00016383)
(-0.0124117 -0.00667291 -0.000208047)
(-0.0108655 -0.00926814 -0.000256269)
(-0.00843809 -0.0116999 -0.000295234)
(-0.00496465 -0.0130612 -0.000308807)
(-0.00144947 -0.0102683 -0.000220354)
(-0.000300802 0.00635408 -0.00012798)
(-0.00142179 0.00926223 -0.00010782)
(-0.00293196 0.00954122 -0.000100834)
(-0.00432878 0.00932052 -9.13498e-05)
(-0.00573 0.00894632 -8.43943e-05)
(-0.00709607 0.00845909 -7.89588e-05)
(-0.00842462 0.0078565 -7.50788e-05)
(-0.00971139 0.00712766 -7.32568e-05)
(-0.0109505 0.00625429 -7.42225e-05)
(-0.0121321 0.00520909 -7.89621e-05)
(-0.0132376 0.00395401 -8.87768e-05)
(-0.0142339 0.00243925 -0.000105377)
(-0.0150626 0.000604795 -0.000130439)
(-0.0156311 -0.00160592 -0.000172137)
(-0.0157825 -0.00425674 -0.000227381)
(-0.0152853 -0.00735483 -0.000300553)
(-0.0138437 -0.0108006 -0.00038862)
(-0.0111422 -0.0142657 -0.000476442)
(-0.0069328 -0.0164358 -0.000524394)
(-0.00218466 -0.0134539 -0.000454045)
(-0.000315149 0.00742666 -0.000154835)
(-0.00152432 0.010857 -0.000134921)
(-0.00316208 0.011188 -0.000126921)
(-0.00466885 0.0109415 -0.000115234)
(-0.00618335 0.0105279 -0.000106074)
(-0.00766379 0.00999849 -9.86262e-05)
(-0.00911439 0.00935432 -9.31567e-05)
(-0.0105381 0.00858625 -9.03604e-05)
(-0.0119386 0.00767596 -9.1194e-05)
(-0.013318 0.00659308 -9.69939e-05)
(-0.0146724 0.00529157 -0.000109674)
(-0.0159837 0.00370533 -0.000131832)
(-0.0172036 0.00174451 -0.000166812)
(-0.0182476 -0.000706294 -0.000225872)
(-0.0189403 -0.00377075 -0.000310532)
(-0.0189766 -0.0075636 -0.000432501)
(-0.0179299 -0.0120657 -0.000593806)
(-0.0151122 -0.0169893 -0.000784224)
(-0.0101996 -0.0204194 -0.000922445)
(-0.00357292 -0.0179224 -0.000978566)
(-0.000331683 0.00860778 -0.000191224)
(-0.00164324 0.0126208 -0.000172037)
(-0.00342446 0.0130007 -0.000161965)
(-0.00504741 0.01272 -0.000146402)
(-0.00667817 0.0122601 -0.000133281)
(-0.00827102 0.0116868 -0.000122168)
(-0.00983822 0.0110068 -0.000113653)
(-0.0113913 0.0102153 -0.000108664)
(-0.0129454 0.00929711 -0.000108409)
(-0.0145184 0.00822277 -0.000114607)
(-0.0161274 0.0069419 -0.00012987)
(-0.0177832 0.00537329 -0.000158251)
(-0.0194767 0.0033922 -0.000206698)
(-0.0211494 0.000823801 -0.000285787)
(-0.0226456 -0.00254285 -0.000420984)
(-0.0236122 -0.00696131 -0.000617407)
(-0.0234875 -0.0126461 -0.000903718)
(-0.0209636 -0.0195107 -0.00129112)
(-0.0158848 -0.0248546 -0.00165015)
(-0.00641792 -0.0244536 -0.00220231)
(-0.000353301 0.00992406 -0.000242302)
(-0.00178934 0.0145895 -0.000224222)
(-0.00373345 0.0150055 -0.000210176)
(-0.00547592 0.0146753 -0.000187834)
(-0.00722226 0.0141517 -0.000167553)
(-0.00891864 0.013523 -0.000149811)
(-0.0105874 0.0128051 -0.000135729)
(-0.0122494 0.0120004 -0.000126513)
(-0.0139329 0.0111018 -0.000123632)
(-0.0156753 0.0100887 -0.000129276)
(-0.0175245 0.00891992 -0.000147141)
(-0.019537 0.0075198 -0.000184003)
(-0.0217578 0.00575496 -0.000249698)
(-0.0241885 0.00339627 -0.0003542)
(-0.0267379 7.74903e-05 -0.000520073)
(-0.0291387 -0.0046967 -0.000819289)
(-0.0308184 -0.0114985 -0.001308)
(-0.029557 -0.0208561 -0.00206591)
(-0.0259374 -0.0289431 -0.00287531)
(-0.0123978 -0.0341526 -0.0049453)
(-0.000384667 0.0114399 -0.000319418)
(-0.00197913 0.0167891 -0.000298975)
(-0.00411176 0.0171993 -0.000276004)
(-0.00597543 0.0167637 -0.000239806)
(-0.00783621 0.016156 -0.000207653)
(-0.00961886 0.0154684 -0.000179456)
(-0.0113618 0.0147148 -0.000156417)
(-0.0130955 0.0139021 -0.000139827)
(-0.0148579 0.0130372 -0.0001312)
(-0.0167006 0.0121169 -0.00013258)
(-0.0186957 0.011117 -0.000147391)
(-0.0209462 0.0099765 -0.000181635)
(-0.0235977 0.00857275 -0.000246682)
(-0.0268258 0.00665965 -0.000367623)
(-0.0307504 0.00378263 -0.000600339)
(-0.035294 -0.000806966 -0.00101062)
(-0.0402214 -0.00802156 -0.00173071)
(-0.0420242 -0.0196308 -0.00296227)
(-0.0431238 -0.0311274 -0.00434972)
(-0.0244857 -0.04937 -0.00943356)
(-0.000495647 0.0131864 -0.000439932)
(-0.00233396 0.01963 -0.000435299)
(-0.00464946 0.0199483 -0.000393123)
(-0.00660291 0.0195082 -0.000339324)
(-0.00852315 0.0186896 -0.000278391)
(-0.01036 0.0177915 -0.000223978)
(-0.0121532 0.0168629 -0.000178917)
(-0.0139264 0.0159502 -0.000146204)
(-0.0157178 0.015085 -0.000127229)
(-0.0175962 0.0142905 -0.000123734)
(-0.0196679 0.0135874 -0.000139709)
(-0.0220876 0.0129795 -0.000182248)
(-0.0250853 0.0124189 -0.000264602)
(-0.0289979 0.0117314 -0.000410827)
(-0.0342594 0.0104606 -0.000655902)
(-0.0411919 0.00756594 -0.000979961)
(-0.0506802 0.00180392 -0.00155338)
(-0.0580302 -0.0118388 -0.00261229)
(-0.0687167 -0.0291424 -0.00253727)
(-0.0430469 -0.0779161 -0.0105402)
(-0.000276862 0.0156018 -0.000642268)
(-0.00240542 0.0216486 -0.00054243)
(-0.0052225 0.0218297 -0.000481189)
(-0.00730764 0.0207969 -0.000356401)
(-0.00955042 0.0199123 -0.000272177)
(-0.0114377 0.0190676 -0.000199193)
(-0.0131953 0.0182665 -0.000142926)
(-0.0148651 0.017483 -9.9875e-05)
(-0.0165075 0.0167396 -6.96978e-05)
(-0.0181846 0.0160814 -5.21687e-05)
(-0.0199871 0.0155928 -4.89223e-05)
(-0.022086 0.0153733 -6.02361e-05)
(-0.0248011 0.0155245 -8.41412e-05)
(-0.0287168 0.0160609 -0.000110148)
(-0.0348623 0.0168444 -0.00011909)
(-0.0441056 0.0166465 0.000138061)
(-0.0604435 0.014344 0.000869193)
(-0.0754801 -0.00141004 0.00241977)
(-0.0984563 -0.0335235 0.0100834)
(-0.0544171 -0.141992 -0.00162282)
(-0.00207741 0.0171797 -0.00100965)
(-0.00487963 0.0279827 -0.00103143)
(-0.0066945 0.0273021 -0.000876666)
(-0.00864714 0.026927 -0.000728841)
(-0.0102725 0.0250807 -0.0005231)
(-0.012016 0.0234632 -0.000354255)
(-0.0137394 0.0218664 -0.000210099)
(-0.015448 0.0204469 -0.000102416)
(-0.0171074 0.0192755 -2.87932e-05)
(-0.0187252 0.0184276 1.43178e-05)
(-0.0203514 0.0180333 2.83618e-05)
(-0.0221202 0.0183272 2.39496e-05)
(-0.0243421 0.0196271 3.07521e-05)
(-0.0275731 0.0223539 0.000134899)
(-0.0334761 0.0271337 0.000545833)
(-0.0427958 0.0314637 0.00213151)
(-0.0645003 0.0353989 0.00615722)
(-0.0833228 0.0105766 0.0138377)
(-0.116671 -0.0658095 0.0263494)
(-0.0401805 -0.241407 -0.000182173)
(0.00187483 0.0272536 -0.00198609)
(-0.00143719 0.0265827 -0.00141454)
(-0.00754675 0.0263661 -0.000943757)
(-0.00950088 0.0235542 -0.000425262)
(-0.0129128 0.0223937 -0.000166115)
(-0.0145305 0.0213073 6.50886e-05)
(-0.0160913 0.0204162 0.000214794)
(-0.0173119 0.0195433 0.000320243)
(-0.0183356 0.0187659 0.000384433)
(-0.0191697 0.0181115 0.000422074)
(-0.0197564 0.0178267 0.000428492)
(-0.0200868 0.0181041 0.000455259)
(-0.0202813 0.0196343 0.000548908)
(-0.0204014 0.0225592 0.000971604)
(-0.0239609 0.0295228 0.00221125)
(-0.0282091 0.0351838 0.00570493)
(-0.0529757 0.0403 0.0144405)
(-0.0754286 -0.00292876 0.025363)
(-0.114218 -0.134018 0.027733)
(-0.0197499 -0.318588 -0.0220005)
(-0.00538635 0.0186025 -0.00225099)
(-0.012417 0.0458052 -0.00232941)
(-0.00813248 0.040323 -0.00209131)
(-0.0124176 0.0387361 -0.00171161)
(-0.0131162 0.0338317 -0.000989123)
(-0.0145009 0.0302944 -0.000413476)
(-0.0153779 0.0269862 5.00512e-05)
(-0.0161193 0.0242843 0.000373626)
(-0.0166453 0.0220982 0.000582815)
(-0.016851 0.020382 0.000683644)
(-0.0167605 0.0191018 0.000707616)
(-0.0160317 0.0188381 0.000686908)
(-0.0152175 0.0198443 0.000765014)
(-0.0121399 0.0232132 0.00124939)
(-0.0129083 0.0330241 0.00290388)
(-0.00613168 0.0415414 0.00772894)
(-0.0204457 0.0521473 0.0166996)
(-0.0178379 -0.0112627 0.0271078)
(-0.0658487 -0.181917 0.0189859)
(-0.00731273 -0.34902 -0.0422922)
(-0.0505624 0.0601104 -0.0091824)
(-0.0298983 0.0279629 -0.00411678)
(-0.0372805 0.0290022 -0.00194446)
(-0.0224247 0.0265998 -3.92821e-05)
(-0.0160155 0.0226939 0.000883666)
(-0.00611327 0.0202308 0.00170194)
(0.00114997 0.0184093 0.0022229)
(0.00804541 0.0166733 0.00252493)
(0.0136755 0.0154344 0.00260519)
(0.0189193 0.0139681 0.00267638)
(0.0235048 0.0132574 0.00232121)
(0.028465 0.0121848 0.00214035)
(0.0330506 0.0126771 0.00173317)
(0.0433035 0.0124458 0.00102349)
(0.0457917 0.0145197 0.00225985)
(0.0773847 0.0136195 0.00340527)
(0.0703244 0.00577538 0.0069108)
(0.126854 -0.0452782 0.0188491)
(0.0448612 -0.199429 0.0107862)
(0.0369665 -0.338658 -0.0487841)
(0.0895513 0.102498 -0.0083537)
(0.114097 0.0554453 -0.0076267)
(0.169053 0.0391904 -0.00747207)
(0.207099 0.0270696 -0.00656586)
(0.235646 0.0198116 -0.00524348)
(0.260399 0.0145415 -0.00415978)
(0.278885 0.0112735 -0.00280455)
(0.29723 0.00895029 -0.00194741)
(0.307719 0.00728434 -0.000834923)
(0.323204 0.00653 1.8727e-05)
(0.326034 0.00494764 0.000433617)
(0.342817 0.00567858 0.00144172)
(0.336412 0.00308315 0.000560107)
(0.361462 0.00533204 0.00204064)
(0.341116 0.00176857 0.000411769)
(0.38208 0.000656091 0.00087443)
(0.337456 -0.00378145 0.00310561)
(0.3777 -0.0272645 -0.00442188)
(0.253711 -0.0611728 0.000230107)
(0.149855 -0.11903 -0.0576316)
(-0.000199158 0.000201062 -2.87606e-05)
(-0.000928356 0.000351353 -4.00395e-06)
(-0.00190586 0.000368205 2.10178e-06)
(-0.00279795 0.000359162 6.21062e-06)
(-0.0036635 0.000342401 6.67012e-06)
(-0.00447128 0.000319636 4.81419e-06)
(-0.00520428 0.000290048 1.13455e-06)
(-0.00584457 0.000252609 -4.3338e-06)
(-0.00637211 0.0002064 -1.17638e-05)
(-0.00676543 0.000150479 -2.11321e-05)
(-0.00700254 8.44501e-05 -3.24245e-05)
(-0.00706121 8.58977e-06 -4.57427e-05)
(-0.00691995 -7.74358e-05 -6.0541e-05)
(-0.00656091 -0.000171042 -7.64179e-05)
(-0.00597312 -0.00026863 -9.23723e-05)
(-0.00515535 -0.000365012 -0.000106912)
(-0.00411777 -0.000453002 -0.000117614)
(-0.00291684 -0.000520814 -0.00012053)
(-0.00150463 -0.000536779 -0.000115136)
(-0.000360458 -0.00034828 -6.55286e-05)
(-0.000361376 0.000948037 -7.15877e-05)
(-0.00151379 0.00148842 -4.84991e-05)
(-0.00298489 0.00153923 -4.0429e-05)
(-0.00433304 0.00148831 -3.2478e-05)
(-0.00562768 0.00140238 -2.79119e-05)
(-0.00682294 0.00128883 -2.53303e-05)
(-0.00789258 0.00114655 -2.43106e-05)
(-0.00881044 0.000973591 -2.49403e-05)
(-0.00954909 0.000768133 -2.74598e-05)
(-0.0100802 0.000528551 -3.21199e-05)
(-0.0103756 0.000253876 -3.92407e-05)
(-0.010409 -5.53974e-05 -4.89267e-05)
(-0.0101546 -0.000394439 -6.06033e-05)
(-0.00959043 -0.000755111 -7.39292e-05)
(-0.00870567 -0.00112464 -8.79553e-05)
(-0.00750148 -0.00148469 -0.000101027)
(-0.00599468 -0.00180995 -0.000110258)
(-0.00426028 -0.00205825 -0.000111093)
(-0.00224318 -0.00211589 -0.00010355)
(-0.000566638 -0.001449 -4.74759e-05)
(-0.000397543 0.00198804 -8.80081e-05)
(-0.00165682 0.00300312 -6.5765e-05)
(-0.00325788 0.00308904 -5.70219e-05)
(-0.00472365 0.0029767 -4.77092e-05)
(-0.00613075 0.00279311 -4.16824e-05)
(-0.00743005 0.002553 -3.75345e-05)
(-0.00859434 0.00225584 -3.49149e-05)
(-0.00959634 0.0018994 -3.40087e-05)
(-0.0104075 0.00148133 -3.51546e-05)
(-0.0109987 0.000999799 -3.87015e-05)
(-0.0113407 0.000454184 -4.48506e-05)
(-0.0114018 -0.000153533 -5.40645e-05)
(-0.0111513 -0.000816024 -6.59258e-05)
(-0.0105646 -0.00151853 -8.0108e-05)
(-0.00962445 -0.00223726 -9.55972e-05)
(-0.00832592 -0.00293733 -0.000110577)
(-0.00668041 -0.00357074 -0.000121682)
(-0.00476679 -0.00405663 -0.000123542)
(-0.00252178 -0.0041774 -0.000116005)
(-0.000640844 -0.00293124 -5.43792e-05)
(-0.000414338 0.00301058 -0.000104175)
(-0.00173527 0.00451078 -8.30376e-05)
(-0.00341822 0.00463306 -7.38634e-05)
(-0.00495936 0.00446225 -6.34937e-05)
(-0.0064433 0.00418639 -5.6337e-05)
(-0.00781943 0.00382723 -5.09995e-05)
(-0.00906114 0.00338431 -4.71876e-05)
(-0.0101414 0.00285456 -4.51705e-05)
(-0.0110313 0.00223439 -4.53876e-05)
(-0.0117005 0.00152056 -4.83128e-05)
(-0.0121169 0.000711818 -5.43848e-05)
(-0.0122468 -0.000189073 -6.41517e-05)
(-0.0120522 -0.00117584 -7.76727e-05)
(-0.0114964 -0.00222938 -9.4234e-05)
(-0.0105502 -0.00331705 -0.000112864)
(-0.00919571 -0.00438822 -0.000131544)
(-0.00743215 -0.00536955 -0.000146503)
(-0.00533922 -0.00613402 -0.000151066)
(-0.00284351 -0.00634542 -0.000144394)
(-0.000727107 -0.00449151 -7.46182e-05)
(-0.000433601 0.00409539 -0.000120509)
(-0.00182734 0.00611365 -0.000100099)
(-0.00360906 0.00627588 -9.0548e-05)
(-0.00524221 0.00604632 -7.92798e-05)
(-0.00682113 0.00567765 -7.12862e-05)
(-0.00829377 0.0051992 -6.51761e-05)
(-0.00963488 0.00461068 -6.07225e-05)
(-0.0108183 0.00390796 -5.82947e-05)
(-0.0118154 0.00308558 -5.84549e-05)
(-0.0125949 0.00213775 -6.18297e-05)
(-0.0131215 0.00105998 -6.90122e-05)
(-0.0133565 -0.000148081 -8.05572e-05)
(-0.0132531 -0.00148086 -9.77292e-05)
(-0.0127604 -0.00291904 -0.000119079)
(-0.0118308 -0.00442428 -0.000143947)
(-0.0104238 -0.00593159 -0.000170065)
(-0.00851458 -0.00733885 -0.000192687)
(-0.00617746 -0.00846013 -0.00020321)
(-0.00332497 -0.00881044 -0.000199044)
(-0.000860118 -0.00628728 -0.000116382)
(-0.000458374 0.00524509 -0.000139594)
(-0.00194472 0.00782103 -0.000119794)
(-0.00385168 0.00802817 -0.000109818)
(-0.00560119 0.00774046 -9.75557e-05)
(-0.00729977 0.00728005 -8.87011e-05)
(-0.00889381 0.00668467 -8.18669e-05)
(-0.0103602 0.00595427 -7.69197e-05)
(-0.0116747 0.00508341 -7.43541e-05)
(-0.0128097 0.00406403 -7.48935e-05)
(-0.0137341 0.00288621 -7.93771e-05)
(-0.0144102 0.00153986 -8.86165e-05)
(-0.0147944 1.74187e-05 -0.000103145)
(-0.0148293 -0.00168018 -0.00012653)
(-0.0144452 -0.0035414 -0.000155635)
(-0.0135684 -0.00552672 -0.000190831)
(-0.0121243 -0.00755968 -0.000229742)
(-0.0100469 -0.00950695 -0.00026632)
(-0.00738951 -0.0111087 -0.000288841)
(-0.00404176 -0.0116803 -0.000290931)
(-0.00106633 -0.0084198 -0.000190266)
(-0.000488817 0.00647614 -0.000163511)
(-0.00208883 0.00965852 -0.000144511)
(-0.00414877 0.00991613 -0.000133934)
(-0.00603912 0.00957029 -0.000120303)
(-0.00788164 0.00901897 -0.000110221)
(-0.00962097 0.00830938 -0.000102333)
(-0.0112375 0.00744219 -9.66539e-05)
(-0.0127099 0.00641067 -9.38584e-05)
(-0.0140141 0.00520342 -9.49002e-05)
(-0.0151205 0.00380478 -0.000100956)
(-0.0159917 0.00219602 -0.000113383)
(-0.0165778 0.000358276 -0.000134008)
(-0.0168131 -0.00171984 -0.000164587)
(-0.0166083 -0.0040429 -0.000205266)
(-0.0158519 -0.00658158 -0.000256883)
(-0.0144198 -0.00925765 -0.000317276)
(-0.0121795 -0.0119084 -0.000379025)
(-0.00912697 -0.0141861 -0.000425591)
(-0.0051147 -0.0151196 -0.000442447)
(-0.00139369 -0.0110637 -0.000320071)
(-0.000524927 0.00780621 -0.000194255)
(-0.00226047 0.0116538 -0.000176498)
(-0.00450179 0.0119671 -0.000164957)
(-0.00655661 0.0115615 -0.000149242)
(-0.00856565 0.0109188 -0.00013717)
(-0.0104716 0.0100973 -0.000127479)
(-0.0122599 0.0090995 -0.000120417)
(-0.0139145 0.00791776 -0.00011691)
(-0.0154168 0.00653731 -0.000118225)
(-0.0167427 0.00493553 -0.000125988)
(-0.0178579 0.00308232 -0.000142235)
(-0.0187114 0.000942411 -0.000169729)
(-0.0192317 -0.00152005 -0.000211455)
(-0.0193084 -0.00433638 -0.000269274)
(-0.0187867 -0.00750622 -0.000346442)
(-0.0174732 -0.0109701 -0.000442305)
(-0.0151342 -0.0145499 -0.000548966)
(-0.0116338 -0.0178067 -0.000644089)
(-0.00676781 -0.0193449 -0.000694571)
(-0.00194304 -0.0145026 -0.00055714)
(-0.000567118 0.00925393 -0.000234399)
(-0.00246173 0.0138357 -0.000218601)
(-0.00491402 0.0142084 -0.00020541)
(-0.00715588 0.0137385 -0.000186378)
(-0.00935155 0.0130012 -0.000170964)
(-0.0114415 0.0120688 -0.000158118)
(-0.0134182 0.0109469 -0.000148436)
(-0.0152735 0.00962849 -0.00014318)
(-0.0169978 0.00809604 -0.000144016)
(-0.018577 0.00631963 -0.000153119)
(-0.0199864 0.00425532 -0.000173322)
(-0.0211818 0.00184501 -0.00020839)
(-0.0220937 -0.000980632 -0.000262749)
(-0.0225965 -0.00429434 -0.000347979)
(-0.0224906 -0.00815736 -0.000463749)
(-0.021495 -0.0125686 -0.000616764)
(-0.0192366 -0.0173743 -0.000802319)
(-0.0153108 -0.0220691 -0.000995322)
(-0.00944064 -0.0246267 -0.00112154)
(-0.00293737 -0.0192521 -0.00101334)
(-0.000616597 0.0108407 -0.000287732)
(-0.00269728 0.0162366 -0.000274871)
(-0.00539248 0.0166682 -0.000258769)
(-0.00784271 0.0161242 -0.000234322)
(-0.0102418 0.0152846 -0.000213274)
(-0.0125275 0.0142388 -0.00019499)
(-0.0147018 0.0129984 -0.000180576)
(-0.0167671 0.0115591 -0.000171722)
(-0.0187275 0.00990291 -0.000170579)
(-0.0205854 0.00799433 -0.000180023)
(-0.0223347 0.00577642 -0.000204057)
(-0.0239498 0.00316615 -0.000248153)
(-0.0253736 4.9377e-05 -0.000319266)
(-0.0264882 -0.0037124 -0.000436958)
(-0.0270686 -0.00828884 -0.000607465)
(-0.0267374 -0.0137945 -0.000850566)
(-0.0249504 -0.0201898 -0.0011722)
(-0.020816 -0.026985 -0.00155551)
(-0.0140517 -0.0312327 -0.00185561)
(-0.00492654 -0.0263661 -0.00194858)
(-0.000676086 0.0125939 -0.000360282)
(-0.00297633 0.0188951 -0.000351555)
(-0.00595044 0.0193766 -0.000330166)
(-0.00862894 0.0187401 -0.000296679)
(-0.0112441 0.0177824 -0.000266159)
(-0.0137296 0.0166147 -0.000238696)
(-0.0160999 0.0152576 -0.000216102)
(-0.018371 0.013713 -0.000200565)
(-0.0205647 0.0119658 -0.000194728)
(-0.0227058 0.00997849 -0.000202147)
(-0.024817 0.00768359 -0.000228045)
(-0.0269115 0.00497102 -0.000280392)
(-0.028975 0.00167502 -0.000372525)
(-0.0309387 -0.00242173 -0.000525723)
(-0.0325848 -0.00760308 -0.000777626)
(-0.0334726 -0.0142279 -0.00115059)
(-0.0329069 -0.0225558 -0.00169299)
(-0.0292194 -0.0323179 -0.00242386)
(-0.0225828 -0.0393075 -0.00311879)
(-0.00939069 -0.0379755 -0.003989)
(-0.000750991 0.0145442 -0.000461852)
(-0.00331735 0.021858 -0.000458371)
(-0.0066132 0.0223689 -0.000427671)
(-0.00953669 0.0216135 -0.000379152)
(-0.012375 0.0205074 -0.000332598)
(-0.0150544 0.0191963 -0.000289693)
(-0.0176055 0.0177154 -0.000253344)
(-0.020061 0.0160769 -0.00022631)
(-0.0224644 0.0142741 -0.00021168)
(-0.0248704 0.0122769 -0.000213703)
(-0.0273457 0.0100226 -0.00023919)
(-0.0299629 0.00739849 -0.000300073)
(-0.0327721 0.00421157 -0.000413962)
(-0.0357746 0.000135347 -0.000601967)
(-0.0389006 -0.00533783 -0.00091021)
(-0.0418363 -0.0128907 -0.00145118)
(-0.0438515 -0.0232952 -0.00233065)
(-0.0422237 -0.0370099 -0.00367595)
(-0.0387084 -0.048307 -0.00515314)
(-0.0197091 -0.0582144 -0.00834573)
(-0.000843548 0.0167738 -0.000611854)
(-0.00373496 0.0251331 -0.000608751)
(-0.00741149 0.0256141 -0.000559801)
(-0.0105988 0.0246529 -0.000483176)
(-0.0136691 0.0233747 -0.000411353)
(-0.0165235 0.0219189 -0.00034494)
(-0.0192208 0.020322 -0.00028739)
(-0.0218135 0.0186025 -0.000241769)
(-0.0243656 0.0167695 -0.000211221)
(-0.0269569 0.0148094 -0.000199532)
(-0.0296929 0.0126711 -0.00021263)
(-0.0327177 0.010247 -0.000260883)
(-0.0362324 0.00733654 -0.000364477)
(-0.0404849 0.00355995 -0.000566474)
(-0.0456463 -0.00173798 -0.000958476)
(-0.0517185 -0.00949357 -0.00166013)
(-0.0584961 -0.0210972 -0.00289862)
(-0.0618491 -0.0386811 -0.00496456)
(-0.0664366 -0.0562736 -0.00736075)
(-0.0385264 -0.0964598 -0.0146081)
(-0.00108119 0.0192546 -0.00083889)
(-0.00444903 0.029325 -0.000865034)
(-0.00848403 0.0296538 -0.000780759)
(-0.0118979 0.0286313 -0.00066895)
(-0.0151175 0.0269841 -0.000543231)
(-0.0181088 0.0251687 -0.000425995)
(-0.0209225 0.0232688 -0.000323914)
(-0.0236138 0.0213561 -0.000243228)
(-0.0262582 0.0194672 -0.000186868)
(-0.0289717 0.0176172 -0.000157603)
(-0.0319154 0.0158037 -0.000160892)
(-0.0353101 0.0139861 -0.000206243)
(-0.039478 0.0120344 -0.000313121)
(-0.0448863 0.00962986 -0.0005192)
(-0.0520891 0.00606395 -0.000885759)
(-0.0618003 3.4554e-05 -0.00142381)
(-0.0752393 -0.010514 -0.00237477)
(-0.0854141 -0.0325563 -0.00380182)
(-0.100786 -0.063451 -0.00345617)
(-0.0493591 -0.168942 -0.0133745)
(-0.000728934 0.0226234 -0.00120076)
(-0.00455698 0.0321592 -0.00109475)
(-0.00961149 0.0323345 -0.000968956)
(-0.0133578 0.030446 -0.000734815)
(-0.0171231 0.0287492 -0.000560344)
(-0.0202233 0.026992 -0.000400042)
(-0.023019 0.0252382 -0.000266929)
(-0.0256006 0.023463 -0.000157539)
(-0.028087 0.0217019 -7.18188e-05)
(-0.0305963 0.0200025 -8.91183e-06)
(-0.0332884 0.0184365 3.18567e-05)
(-0.0364345 0.0170772 5.48822e-05)
(-0.0405085 0.0159772 6.7697e-05)
(-0.0463428 0.0150621 8.92697e-05)
(-0.0551538 0.0139956 0.000158626)
(-0.0682669 0.0113078 0.000624512)
(-0.0893328 0.00421077 0.00197624)
(-0.100712 -0.0242242 0.00559044)
(-0.121168 -0.0827037 0.0166948)
(-0.0231528 -0.26232 0.000186872)
(-0.00347317 0.0241743 -0.00177982)
(-0.00848628 0.0411021 -0.00186186)
(-0.0119761 0.0401816 -0.00161547)
(-0.0156807 0.03916 -0.00134581)
(-0.0186255 0.0359726 -0.000981083)
(-0.0216611 0.0330769 -0.000663982)
(-0.0244732 0.0301996 -0.0003816)
(-0.0271588 0.0275754 -0.000157085)
(-0.0297172 0.0252763 1.12276e-05)
(-0.0322274 0.0233855 0.000128552)
(-0.0348201 0.0220242 0.000204564)
(-0.0377298 0.0214704 0.000265379)
(-0.0414144 0.0220532 0.000370945)
(-0.0466622 0.0242845 0.000674105)
(-0.0550501 0.0285491 0.00155432)
(-0.0670372 0.0314412 0.00434992)
(-0.0891331 0.0299974 0.0110954)
(-0.091945 -0.0116304 0.0244524)
(-0.116244 -0.111934 0.0413499)
(0.0147688 -0.327609 0.000405143)
(0.00182094 0.0374248 -0.00330855)
(-0.00378748 0.0381489 -0.00258582)
(-0.01421 0.0378878 -0.0018384)
(-0.0176526 0.0337386 -0.00101508)
(-0.0230284 0.0320476 -0.000552251)
(-0.0257407 0.030177 -0.000112864)
(-0.0283134 0.0284672 0.000211038)
(-0.0303273 0.0267039 0.000467631)
(-0.0320374 0.025025 0.000652117)
(-0.0335129 0.0234728 0.00078936)
(-0.0347305 0.0223578 0.000879516)
(-0.0357667 0.0219002 0.00102341)
(-0.036789 0.0229421 0.00132457)
(-0.0380396 0.0257116 0.00222468)
(-0.0427587 0.0325853 0.00457357)
(-0.0460734 0.0370876 0.0105797)
(-0.065839 0.0362582 0.0241483)
(-0.0627473 -0.0142991 0.0430391)
(-0.0913501 -0.154035 0.0473205)
(0.031307 -0.374191 -0.0205188)
(-0.00218136 0.0216123 -0.00371348)
(-0.0111351 0.062888 -0.00393103)
(-0.00867512 0.057277 -0.00361375)
(-0.0186507 0.0551582 -0.00297965)
(-0.0223432 0.0484572 -0.0018404)
(-0.0264157 0.0433737 -0.00090489)
(-0.0287808 0.0385083 -0.000110589)
(-0.0304461 0.0344004 0.000475246)
(-0.0314477 0.0308697 0.000893479)
(-0.0318693 0.0280805 0.00114889)
(-0.0319277 0.025632 0.00129364)
(-0.0313253 0.0247564 0.00140082)
(-0.0307752 0.0255085 0.00173115)
(-0.0278548 0.0292359 0.00282255)
(-0.027932 0.0413399 0.00578504)
(-0.0168756 0.0498468 0.0136255)
(-0.0207526 0.0606668 0.0258871)
(0.0146956 0.00605992 0.0450658)
(-0.0165975 -0.175935 0.0385171)
(0.0613942 -0.398222 -0.0368385)
(-0.0742135 0.06137 -0.0119604)
(-0.0534553 0.0376987 -0.00565792)
(-0.0707951 0.0421073 -0.00295194)
(-0.0516268 0.0393399 -0.000530725)
(-0.0452843 0.0343734 0.000680803)
(-0.0315944 0.0309457 0.00195343)
(-0.0208415 0.0280438 0.00280796)
(-0.00986141 0.0251541 0.0033993)
(9.77121e-05 0.0230555 0.00366647)
(0.00924644 0.0204786 0.003952)
(0.0180458 0.0191052 0.00355205)
(0.0261046 0.01707 0.00343544)
(0.0335589 0.0173491 0.0029763)
(0.0475982 0.0168171 0.0021164)
(0.0494665 0.0191849 0.00401509)
(0.0910517 0.0201372 0.00628795)
(0.0884825 0.00338616 0.00863639)
(0.158388 -0.0231047 0.0245063)
(0.122756 -0.188093 0.021786)
(0.135556 -0.367473 -0.0466682)
(0.085586 0.122082 -0.0110112)
(0.115587 0.07432 -0.0103574)
(0.171776 0.0568094 -0.0102362)
(0.216188 0.0432327 -0.00922383)
(0.249777 0.0347197 -0.00768625)
(0.282124 0.0279955 -0.00645097)
(0.305026 0.0232872 -0.00471)
(0.333574 0.0197481 -0.00351516)
(0.34717 0.0162627 -0.00212903)
(0.374852 0.0150769 -0.000552638)
(0.379637 0.0112163 -0.000112883)
(0.408587 0.0119551 0.0015432)
(0.403865 0.00794527 0.00132055)
(0.438342 0.00882867 0.00165686)
(0.422031 0.00689619 0.0029333)
(0.463768 0.00325401 -0.000529428)
(0.433458 -0.000507113 0.00562961)
(0.462363 -0.0199704 -0.00589991)
(0.369212 -0.0641744 -0.00119024)
(0.256164 -0.122064 -0.0599645)
(-0.000209205 0.000207572 -3.38948e-05)
(-0.00097835 0.000367844 -2.79096e-05)
(-0.00200926 0.000385785 -2.39172e-05)
(-0.00294747 0.000375928 -2.02213e-05)