/*--------------------------------*- C++ -*----------------------------------*\
  =========                 |
  \\      /  F ield         | OpenFOAM: The Open Source CFD Toolbox
   \\    /   O peration     | Website:  https://openfoam.org
    \\  /    A nd           | Version:  9
     \\/     M anipulation  |
\*---------------------------------------------------------------------------*/
FoamFile
{
    format      ascii;
    class       volScalarField;
    location    "8";
    object      p;
}
// * * * * * * * * * * * * * * * * * * * * * * * * * * * * * * * * * * * * * //

dimensions      [0 2 -2 0 0 0 0];

internalField   nonuniform List<scalar> 
400
(
-1.01054e-08
1.38158e-06
5.36605e-05
0.000140612
0.000268409
0.000439155
0.000656339
0.000923878
0.00124562
0.00162472
0.00206293
0.00255935
0.00310875
0.00369963
0.00431203
0.00491507
0.00546774
0.00591365
0.00622208
0.00629985
-1.61369e-06
-4.49764e-07
5.25396e-05
0.000137978
0.000263034
0.000429955
0.000642417
0.000904532
0.00122047
0.00159391
0.00202738
0.00252093
0.00307018
0.00366528
0.00428841
0.00490897
0.00548482
0.00595512
0.00628546
0.00636995
-6.19467e-05
-6.35563e-05
-1.29326e-05
6.8389e-05
0.000188119
0.000348605
0.000553891
0.000808667
0.001118
0.00148691
0.00191959
0.00241857
0.00298315
0.00360648
0.00427234
0.00495069
0.00559576
0.00613608
0.00652352
0.00663023
-0.000163833
-0.000167887
-0.000121056
-4.60591e-05
6.53631e-05
0.000215736
0.00040962
0.000652518
0.000950796
0.00131149
0.00174173
0.00224766
0.00283285
0.0034955
0.00422565
0.00499532
0.00575568
0.00642083
0.0069112
0.00707066
-0.000310006
-0.000317022
-0.000275616
-0.000209324
-0.000109402
2.68272e-05
0.000204512
0.00043008
0.000711413
0.00105793
0.00148046
0.00199055
0.00259863
0.00331069
0.00412483
0.00502123
0.00595011
0.00681139
0.00747586
0.00774876
-0.000497789
-0.000508444
-0.00047413
-0.000419161
-0.000334397
-0.00021714
-6.18085e-05
0.000138835
0.000394098
0.00071583
0.00111881
0.0016209
0.00224212
0.00300203
0.00390795
0.00496256
0.00612284
0.00728102
0.00823805
0.0087459
-0.00072351
-0.000738523
-0.000713002
-0.000672179
-0.000606667
-0.000514004
-0.000388569
-0.000222763
-6.32555e-06
0.000274501
0.000638036
0.00110829
0.00171581
0.00249588
0.003483
0.00470603
0.00615609
0.00774554
0.00917728
0.0102071
-0.000982814
-0.0010029
-0.000987794
-0.000963929
-0.000921912
-0.000859893
-0.000772802
-0.000653566
-0.00049212
-0.000274123
2.06375e-05
0.00042054
0.000965416
0.00171033
0.00272532
0.00406983
0.00581526
0.00796691
0.0101572
0.012121
-0.00127045
-0.00129622
-0.00129286
-0.00128842
-0.00127383
-0.00124834
-0.00120823
-0.00114805
-0.00105969
-0.000931012
-0.00074368
-0.000469877
-6.79224e-05
0.000525474
0.00140179
0.00268528
0.00455341
0.00725488
0.0105274
0.0138097
-0.00158036
-0.00161219
-0.00162123
-0.00163781
-0.00165357
-0.00166942
-0.00168392
-0.00169449
-0.00169698
-0.00168465
-0.00164673
-0.0015658
-0.00141299
-0.00114112
-0.000680255
7.74797e-05
0.00141686
0.00385775
0.00764371
0.0119941
-0.00190618
-0.00194463
-0.00196598
-0.00200413
-0.00205129
-0.00211087
-0.00218484
-0.00227478
-0.00238287
-0.00251184
-0.00266524
-0.00284803
-0.00306713
-0.00333483
-0.00370031
-0.00427219
-0.00496911
-0.0040429
-0.000359748
0.00473877
-0.00224
-0.00228333
-0.00231347
-0.00237003
-0.00244694
-0.00255008
-0.00268421
-0.0028561
-0.00307512
-0.00335527
-0.00371876
-0.00420288
-0.00487399
-0.00584886
-0.00739383
-0.00994513
-0.0139703
-0.0154561
-0.0124733
-0.00612508
-0.00258372
-0.0026406
-0.00267864
-0.00275734
-0.00285806
-0.00299702
-0.00318171
-0.00342583
-0.00374791
-0.00417582
-0.00475355
-0.00555366
-0.00671386
-0.00844211
-0.0112702
-0.0156403
-0.0233582
-0.0267744
-0.0258154
-0.0172402
-0.0029093
-0.00295481
-0.00298354
-0.0030525
-0.00316642
-0.00333689
-0.00357338
-0.00388866
-0.00430324
-0.00485066
-0.00558769
-0.00660624
-0.00812062
-0.0103217
-0.0141925
-0.0192253
-0.0295816
-0.033533
-0.0348048
-0.0249183
-0.00324584
-0.00335753
-0.00337519
-0.00349821
-0.00360906
-0.00378733
-0.00402594
-0.00435586
-0.00480149
-0.00540217
-0.0062183
-0.00732089
-0.00900496
-0.0112113
-0.0156947
-0.0198928
-0.0310432
-0.0337519
-0.0356886
-0.0255944
-0.00368543
-0.00361547
-0.00357919
-0.00354603
-0.00363287
-0.00381477
-0.00409629
-0.00448263
-0.00498724
-0.00563513
-0.0064834
-0.00754136
-0.00914943
-0.0111627
-0.01483
-0.0186925
-0.0262856
-0.0282214
-0.0302852
-0.0183442
-0.00354259
-0.00408168
-0.00403016
-0.00430152
-0.00431076
-0.00445953
-0.00463171
-0.00492476
-0.00533458
-0.00589352
-0.00664942
-0.00755546
-0.00894364
-0.010557
-0.0133079
-0.016062
-0.020501
-0.0210132
-0.0205365
-0.00318505
-0.00557988
-0.00438067
-0.00415614
-0.00358328
-0.00356553
-0.00371202
-0.00401102
-0.00442867
-0.0049479
-0.00556568
-0.00633159
-0.00717396
-0.00828944
-0.00950093
-0.0110708
-0.0122921
-0.0135824
-0.0121852
-0.00767113
0.0196413
-0.00219197
-0.00553051
-0.00487651
-0.00545194
-0.00503501
-0.00509646
-0.00505556
-0.00523593
-0.00551562
-0.00590766
-0.00653592
-0.00720273
-0.00824159
-0.00939938
-0.0113196
-0.0128327
-0.0153175
-0.0104347
0.000472739
0.0507291
-0.0166678
-0.00389888
-0.00296798
-0.00272796
-0.00274912
-0.00294019
-0.0032902
-0.00375946
-0.00430441
-0.00485901
-0.00566983
-0.0064465
-0.00743202
-0.00845624
-0.00917829
-0.00812557
-0.00419934
0.0149141
0.0553726
0.146104
)
;

boundaryField
{
    movingWall
    {
        type            zeroGradient;
    }
    fixedWalls
    {
        type            zeroGradient;
    }
    frontAndBack
    {
        type            empty;
    }
}


// ************************************************************************* //
