/*--------------------------------*- C++ -*----------------------------------*\
  =========                 |
  \\      /  F ield         | OpenFOAM: The Open Source CFD Toolbox
   \\    /   O peration     | Website:  https://openfoam.org
    \\  /    A nd           | Version:  9
     \\/     M anipulation  |
\*---------------------------------------------------------------------------*/
FoamFile
{
    format      ascii;
    class       surfaceScalarField;
    location    "8";
    object      phi;
}
// * * * * * * * * * * * * * * * * * * * * * * * * * * * * * * * * * * * * * //

dimensions      [0 3 -1 0 0 0 0];

internalField   nonuniform List<scalar> 
760
(
-7.24351e-06
7.24352e-06
-1.97314e-05
1.24879e-05
-3.34264e-05
1.3695e-05
-4.73644e-05
1.3938e-05
-6.1343e-05
1.39786e-05
-7.52731e-05
1.393e-05
-8.90087e-05
1.37356e-05
-0.000102305
1.32967e-05
-0.000114792
1.24862e-05
-0.00012594
1.11485e-05
-0.000135043
9.10332e-06
-0.0001412
6.15646e-06
-0.000143326
2.12653e-06
-0.000140195
-3.13153e-06
-0.000130592
-9.60251e-06
-0.000113573
-1.70193e-05
-8.88674e-05
-2.47056e-05
-5.76504e-05
-3.1217e-05
-2.38803e-05
-3.37701e-05
-2.38803e-05
-1.3058e-05
2.03015e-05
-3.35035e-05
3.29335e-05
-5.55688e-05
3.57603e-05
-7.77485e-05
3.61176e-05
-9.96274e-05
3.58576e-05
-0.000120958
3.52611e-05
-0.000141447
3.4224e-05
-0.000160693
3.25426e-05
-0.000178154
2.99472e-05
-0.000193109
2.61036e-05
-0.000204603
2.05977e-05
-0.00021151
1.30628e-05
-0.000212549
3.16606e-06
-0.00020613
-9.55032e-06
-0.000190731
-2.50016e-05
-0.000165181
-4.25698e-05
-0.000129133
-6.07538e-05
-8.41063e-05
-7.62433e-05
-3.55717e-05
-8.23047e-05
-5.9452e-05
-1.46515e-05
3.4953e-05
-3.74338e-05
5.57158e-05
-6.19256e-05
6.02521e-05
-8.64596e-05
6.06516e-05
-0.000110593
5.99915e-05
-0.000134074
5.87417e-05
-0.00015661
5.67603e-05
-0.000177817
5.37489e-05
-0.000197172
4.93021e-05
-0.000213972
4.2904e-05
-0.000227316
3.39415e-05
-0.000236
2.17467e-05
-0.00023852
5.68605e-06
-0.000233081
-1.49893e-05
-0.000217744
-4.0338e-05
-0.000190717
-6.95973e-05
-0.000150979
-0.000100492
-9.95974e-05
-0.000127624
-4.28123e-05
-0.00013909
-0.000102264
-1.49979e-05
4.99509e-05
-3.84982e-05
7.9216e-05
-6.37852e-05
8.55392e-05
-8.91633e-05
8.60297e-05
-0.000114228
8.50565e-05
-0.000138784
8.32976e-05
-0.000162614
8.05897e-05
-0.00018542
7.65553e-05
-0.000206781
7.06631e-05
-0.00022609
6.22133e-05
-0.00024248
5.03313e-05
-0.000254737
3.40034e-05
-0.000261236
1.21854e-05
-0.000259833
-1.63919e-05
-0.000247733
-5.24387e-05
-0.000221986
-9.53436e-05
-0.000180053
-0.000142425
-0.000121701
-0.000185976
-5.40298e-05
-0.000206761
-0.000156294
-1.50433e-05
6.49942e-05
-3.89222e-05
0.000103095
-6.47063e-05
0.000111323
-9.06876e-05
0.000112011
-0.000116525
0.000110893
-0.000142113
0.000108886
-0.00016735
0.000105827
-0.00019208
0.000101285
-0.000216041
9.46236e-05
-0.000238791
8.49642e-05
-0.000259609
7.11484e-05
-0.000277327
5.17218e-05
-0.000290145
2.50032e-05
-0.000295568
-1.09692e-05
-0.00028977
-5.82368e-05
-0.000268044
-0.000117069
-0.000225326
-0.000185143
-0.000158512
-0.00025279
-7.45303e-05
-0.000290743
-0.000230824
-1.50181e-05
8.00123e-05
-3.92383e-05
0.000127315
-6.55061e-05
0.000137591
-9.20902e-05
0.000138595
-0.000118721
0.000137525
-0.000145409
0.000135574
-0.000172202
0.00013262
-0.000199135
0.000128218
-0.000226181
0.000121669
-0.000253167
0.000111951
-0.000279648
9.76287e-05
-0.00030469
7.67641e-05
-0.000326534
4.68474e-05
-0.000342571
5.06807e-06
-0.000347697
-5.31113e-05
-0.000335059
-0.000129707
-0.000295667
-0.000224535
-0.000221306
-0.000327151
-0.000114587
-0.000397462
-0.000345411
-1.49507e-05
9.4963e-05
-3.95107e-05
0.000151875
-6.62595e-05
0.00016434
-9.34232e-05
0.000165759
-0.000120806
0.000164908
-0.000148548
0.000163315
-0.000176879
0.000160951
-0.000206081
0.00015742
-0.000236447
0.000152035
-0.00026821
0.000143714
-0.000301412
0.000130831
-0.00033567
0.000111022
-0.000369768
8.09461e-05
-0.000400815
3.61148e-05
-0.000424177
-2.97494e-05
-0.000430231
-0.000123653
-0.000404986
-0.00024978
-0.000331787
-0.00040035
-0.000196165
-0.000533084
-0.000541576
-1.48324e-05
0.000109795
-3.97175e-05
0.00017676
-6.69043e-05
0.000191527
-9.45477e-05
0.000193402
-0.00012252
0.00019288
-0.00015109
0.000191886
-0.000180696
0.000190557
-0.000211913
0.000188637
-0.000245442
0.000185564
-0.000282078
0.00018035
-0.000322614
0.000171366
-0.000367617
0.000156025
-0.000417005
0.000130334
-0.000469199
8.83087e-05
-0.000520695
2.17466e-05
-0.000561944
-8.2404e-05
-0.000574906
-0.000236817
-0.000527585
-0.000447672
-0.000356254
-0.000704415
-0.00089783
-1.46674e-05
0.000124463
-3.98591e-05
0.000201952
-6.74027e-05
0.00021907
-9.53455e-05
0.000221345
-0.000123607
0.000221141
-0.000152581
0.00022086
-0.000182903
0.000220879
-0.000215451
0.000221185
-0.000251386
0.000221499
-0.000292188
0.000221152
-0.000339658
0.000218837
-0.000395855
0.000212222
-0.000462865
0.000197343
-0.000542228
0.000167672
-0.000633741
0.000113259
-0.000736161
2.0017e-05
-0.000827789
-0.00014519
-0.000836959
-0.000438502
-0.000593421
-0.000947953
-0.00149125
-1.44948e-05
0.000138958
-4.0007e-05
0.000227464
-6.78097e-05
0.000246873
-9.58049e-05
0.00024934
-0.000123928
0.000249264
-0.000152671
0.000249602
-0.000182845
0.000251054
-0.000215601
0.00025394
-0.00025254
0.000258438
-0.000295862
0.000264474
-0.000348559
0.000271533
-0.000414643
0.000278306
-0.000499392
0.000282093
-0.000609741
0.00027802
-0.000754533
0.000258052
-0.00093777
0.000203253
-0.00112814
4.51772e-05
-0.00115532
-0.000411319
-0.000735799
-0.00136747
-0.00222705
-1.43769e-05
0.000153335
-4.03064e-05
0.000253394
-6.83017e-05
0.000274868
-9.61007e-05
0.000277139
-0.000123557
0.000276721
-0.000151239
0.000277284
-0.000180084
0.000279899
-0.000211391
0.000285247
-0.000247048
0.000294095
-0.000289778
0.000307205
-0.000343538
0.000325293
-0.000414172
0.000348941
-0.000510492
0.000378412
-0.000645802
0.000413331
-0.000837434
0.000449684
-0.0010859
0.000451717
-0.00130932
0.000268602
-0.00124222
-0.00047842
-0.000666245
-0.00194345
-0.00289329
-1.46346e-05
0.000167969
-4.13181e-05
0.000280077
-6.9438e-05
0.000302988
-9.65939e-05
0.000304295
-0.000122706
0.000302833
-0.000148422
0.000303
-0.000174629
0.000306106
-0.000202681
0.000313299
-0.000234546
0.00032596
-0.000273153
0.000345812
-0.000322922
0.000375062
-0.000390618
0.000416636
-0.0004869
0.000474694
-0.000626413
0.000552844
-0.000824202
0.000647473
-0.00105789
0.0006854
-0.0012229
0.000433613
-0.00106593
-0.000635387
-0.000599322
-0.00241006
-0.00349262
-1.4247e-05
0.000182216
-4.20781e-05
0.000307908
-7.07039e-05
0.000331614
-9.82145e-05
0.000331806
-0.000123069
0.000327688
-0.000146037
0.000325969
-0.000167899
0.000327968
-0.000189961
0.000335361
-0.000213936
0.000349935
-0.000242257
0.000374133
-0.000278605
0.00041141
-0.000328621
0.000466652
-0.000402175
0.000548248
-0.000510313
0.000660982
-0.000665345
0.000802505
-0.000818229
0.000838284
-0.000905504
0.000520888
-0.000768496
-0.000772395
-0.000530135
-0.00264842
-0.00402275
-1.92128e-05
0.000201429
-4.97196e-05
0.000338415
-7.79718e-05
0.000359866
-0.000101475
0.000355309
-0.000121911
0.000348123
-0.000140286
0.000344344
-0.000157181
0.000344863
-0.000173109
0.000351288
-0.000188828
0.000365654
-0.000205534
0.00039084
-0.000225201
0.000431077
-0.000250366
0.000491817
-0.00028646
0.000584342
-0.000330996
0.000705519
-0.000392143
0.000863652
-0.00042799
0.000874131
-0.000443014
0.000535912
-0.00040424
-0.00081117
-0.000317027
-0.00273563
-0.00433978
-1.00836e-05
0.000211513
-4.41114e-05
0.000372443
-7.7167e-05
0.000392922
-0.000108124
0.000386266
-0.000130264
0.000370263
-0.000146356
0.000360435
-0.000156476
0.000354984
-0.000162108
0.00035692
-0.000163689
0.000367235
-0.000161336
0.000388487
-0.000154616
0.000424357
-0.000141905
0.000479106
-0.000123199
0.000565636
-9.05173e-05
0.000672836
-3.79555e-05
0.00081109
9.58798e-07
0.000835217
6.06932e-05
0.000476177
-4.89421e-05
-0.000701534
-0.000146125
-0.00263845
-0.0044859
-5.3306e-05
0.000264819
-8.56465e-05
0.000404783
-0.000108162
0.000415438
-0.00012016
0.000398264
-0.000129087
0.00037919
-0.000136041
0.000367389
-0.00014012
0.000359063
-0.00013996
0.00035676
-0.000133981
0.000361256
-0.000120067
0.000374573
-9.56453e-05
0.000399936
-5.5879e-05
0.00043934
4.55733e-06
0.000505199
8.78501e-05
0.000589544
0.000215991
0.00068295
0.000344777
0.00070643
0.000456401
0.000364554
0.000280513
-0.000525647
1.14927e-05
-0.00236943
-0.00447441
1.32454e-05
0.000251573
-6.51158e-05
0.000483144
-0.000120716
0.000471038
-0.000153828
0.000431375
-0.000167029
0.000392392
-0.000170282
0.000370642
-0.000164155
0.000352936
-0.000151417
0.000344023
-0.000129899
0.000339737
-9.74944e-05
0.000342168
-4.92203e-05
0.000351662
2.05656e-05
0.000369554
0.000121474
0.000404291
0.000261924
0.000449094
0.000447236
0.000497638
0.000646603
0.000507063
0.000752649
0.000258508
0.000486306
-0.000259304
0.000186429
-0.00206955
-0.00428798
-4.28537e-05
0.000294427
-1.44617e-05
0.000454752
-3.22116e-05
0.000488788
-8.27285e-05
0.000481892
-0.000114048
0.000423712
-0.00013802
0.000394613
-0.000147332
0.000362247
-0.000142933
0.000339624
-0.000124002
0.000320807
-8.84629e-05
0.000306628
-3.51912e-05
0.00029839
4.12727e-05
0.00029309
0.000143171
0.000302392
0.000274499
0.000317766
0.000440047
0.000332089
0.000591148
0.000355963
0.000732676
0.00011698
0.000657025
-0.000183653
0.000450012
-0.00186254
-0.00383797
-0.000644429
0.000938856
-0.000692088
0.000502411
-0.000658985
0.000455685
-0.000553677
0.000376584
-0.000444783
0.000314818
-0.00032476
0.00027459
-0.000205096
0.000242583
-8.56108e-05
0.000220139
3.48365e-05
0.00020036
0.000155261
0.000186204
0.00027825
0.000175401
0.000405713
0.000165627
0.000549029
0.000159076
0.000709335
0.000157461
0.00091264
0.000128783
0.00114886
0.000119738
0.00132649
-6.06426e-05
0.00149173
-0.000348895
0.0010882
-0.00145901
-0.00274977
0.000938856
0.00144127
0.00189695
0.00227354
0.00258835
0.00286294
0.00310553
0.00332567
0.00352603
0.00371223
0.00388763
0.00405326
0.00421233
0.0043698
0.00449858
0.00461832
0.00455767
0.00420878
0.00274977
)
;

boundaryField
{
    movingWall
    {
        type            calculated;
        value           uniform 0;
    }
    fixedWalls
    {
        type            calculated;
        value           uniform 0;
    }
    frontAndBack
    {
        type            empty;
        value           nonuniform List<scalar> 0();
    }
}


// ************************************************************************* //
