/*--------------------------------*- C++ -*----------------------------------*\
  =========                 |
  \\      /  F ield         | OpenFOAM: The Open Source CFD Toolbox
   \\    /   O peration     | Website:  https://openfoam.org
    \\  /    A nd           | Version:  9
     \\/     M anipulation  |
\*---------------------------------------------------------------------------*/
FoamFile
{
    format      ascii;
    class       volVectorField;
    location    "8";
    object      U;
}
// * * * * * * * * * * * * * * * * * * * * * * * * * * * * * * * * * * * * * //

dimensions      [0 1 -1 0 0 0 0];

internalField   nonuniform List<vector> 
400
(
(-0.000244992 0.000234552 0)
(-0.00124349 0.000450489 0)
(-0.0026685 0.000502653 0)
(-0.00404015 0.000518572 0)
(-0.00544211 0.000529597 0)
(-0.00684141 0.000540245 0)
(-0.00822904 0.000547426 0)
(-0.00958617 0.000546238 0)
(-0.0108821 0.000530463 0)
(-0.0120728 0.000492451 0)
(-0.0130973 0.00042348 0)
(-0.0138753 0.000315348 0)
(-0.0143078 0.00015895 0)
(-0.0142774 -5.66994e-05 0)
(-0.0136586 -0.000331488 0)
(-0.012341 -0.000653872 0)
(-0.010237 -0.00099324 0)
(-0.00745477 -0.00128384 0)
(-0.00393421 -0.00140468 0)
(-0.00096677 -0.000976428 0)
(-0.000486139 0.00125739 0)
(-0.00217926 0.00210451 0)
(-0.00447255 0.00229818 0)
(-0.00667358 0.00233184 0)
(-0.00888777 0.00232884 0)
(-0.0110559 0.0023076 0)
(-0.0131549 0.00225976 0)
(-0.015151 0.00217021 0)
(-0.0169975 0.00201935 0)
(-0.0186317 0.00178327 0)
(-0.0199704 0.00143427 0)
(-0.0209099 0.000940962 0)
(-0.0213309 0.000274799 0)
(-0.0210866 -0.000582173 0)
(-0.0200173 -0.00162555 0)
(-0.0179849 -0.00281281 0)
(-0.0148812 -0.0040374 0)
(-0.0108429 -0.00507275 0)
(-0.00579661 -0.00547477 0)
(-0.00147364 -0.00390983 0)
(-0.000547748 0.00276693 0)
(-0.00244126 0.0044328 0)
(-0.00499108 0.00480054 0)
(-0.00742938 0.0048378 0)
(-0.00987544 0.00478982 0)
(-0.0122644 0.00469406 0)
(-0.0145738 0.00453813 0)
(-0.016771 0.00429688 0)
(-0.0188106 0.0039366 0)
(-0.0206321 0.00341525 0)
(-0.0221563 0.00268345 0)
(-0.0232788 0.00168601 0)
(-0.0238648 0.000371555 0)
(-0.0237484 -0.00129326 0)
(-0.02274 -0.00331278 0)
(-0.0206491 -0.00561713 0)
(-0.0172959 -0.00801767 0)
(-0.012765 -0.0100851 0)
(-0.00693705 -0.0109113 0)
(-0.00180203 -0.00794397 0)
(-0.000555292 0.00423818 0)
(-0.00250436 0.00673195 0)
(-0.00513841 0.00727276 0)
(-0.00765629 0.00731606 0)
(-0.0101912 0.00723262 0)
(-0.0126796 0.00707933 0)
(-0.0151065 0.00684029 0)
(-0.0174476 0.00648118 0)
(-0.0196673 0.00595466 0)
(-0.0217143 0.0051996 0)
(-0.023516 0.00414181 0)
(-0.0249704 0.00269871 0)
(-0.0259381 0.000785833 0)
(-0.0262322 -0.00166801 0)
(-0.0256045 -0.00470075 0)
(-0.0237656 -0.00824623 0)
(-0.0203936 -0.0120534 0)
(-0.01542 -0.0154842 0)
(-0.00865503 -0.0170109 0)
(-0.00234534 -0.0126439 0)
(-0.000548684 0.00574 0)
(-0.00252052 0.00909917 0)
(-0.00520543 0.00982393 0)
(-0.00777561 0.0098814 0)
(-0.0103788 0.00977482 0)
(-0.0129556 0.00958307 0)
(-0.0155026 0.00928885 0)
(-0.0180085 0.00885069 0)
(-0.0204529 0.00820925 0)
(-0.0228017 0.00728479 0)
(-0.0249976 0.00597502 0)
(-0.0269475 0.00415637 0)
(-0.0285076 0.00169245 0)
(-0.02947 -0.00154785 0)
(-0.0295223 -0.00567674 0)
(-0.0282388 -0.0106821 0)
(-0.0250873 -0.0162962 0)
(-0.019683 -0.021673 0)
(-0.0116846 -0.0244516 0)
(-0.00340473 -0.0188149 0)
(-0.000537569 0.00724295 0)
(-0.00252679 0.0115029 0)
(-0.00526078 0.012425 0)
(-0.0078822 0.012508 0)
(-0.0105545 0.0123962 0)
(-0.0132234 0.0121941 0)
(-0.0159003 0.0118865 0)
(-0.0185908 0.011428 0)
(-0.0212962 0.0107505 0)
(-0.0240085 0.00975718 0)
(-0.0266988 0.00831707 0)
(-0.0292999 0.00625902 0)
(-0.031681 0.00337158 0)
(-0.0336345 -0.000585163 0)
(-0.0347885 -0.00582693 0)
(-0.0345572 -0.0125192 0)
(-0.0321274 -0.0204848 0)
(-0.0265753 -0.0287074 0)
(-0.0172492 -0.0337596 0)
(-0.00559308 -0.0276793 0)
(-0.000522914 0.00874036 0)
(-0.00252796 0.0139394 0)
(-0.00531228 0.0150732 0)
(-0.0079831 0.0151931 0)
(-0.0107209 0.0150947 0)
(-0.0134768 0.0149132 0)
(-0.0162794 0.0146399 0)
(-0.0191552 0.0142311 0)
(-0.0221339 0.0136149 0)
(-0.0252443 0.0126831 0)
(-0.0285036 0.011279 0)
(-0.0318993 0.00918278 0)
(-0.035357 0.00609535 0)
(-0.0386792 0.0016347 0)
(-0.0415119 -0.00461927 0)
(-0.0431785 -0.0131211 0)
(-0.0425251 -0.0240053 0)
(-0.037849 -0.0362754 0)
(-0.0280069 -0.045522 0)
(-0.0105319 -0.0417129 0)
(-0.000504159 0.0102286 0)
(-0.00252287 0.0164093 0)
(-0.00535653 0.0177679 0)
(-0.00806896 0.0179322 0)
(-0.010859 0.0178621 0)
(-0.0136821 0.0177289 0)
(-0.0165848 0.0175369 0)
(-0.0196181 0.0172516 0)
(-0.0228464 0.016808 0)
(-0.0263466 0.0160984 0)
(-0.0302015 0.0149542 0)
(-0.0344866 0.0131196 0)
(-0.0392352 0.010217 0)
(-0.0443737 0.00570582 0)
(-0.0496681 -0.00114651 0)
(-0.0545202 -0.0111676 0)
(-0.0576425 -0.0252311 0)
(-0.0565015 -0.0428157 0)
(-0.0485837 -0.060146 0)
(-0.0210406 -0.0659301 0)
(-0.000481455 0.0117024 0)
(-0.00251226 0.0189106 0)
(-0.00539271 0.0205027 0)
(-0.00813287 0.0207115 0)
(-0.0109514 0.0206755 0)
(-0.0138051 0.0206095 0)
(-0.016758 0.0205377 0)
(-0.0198853 0.0204444 0)
(-0.0232884 0.0202847 0)
(-0.0270995 0.0199707 0)
(-0.0314842 0.0193472 0)
(-0.0366404 0.0181542 0)
(-0.0427849 0.0159684 0)
(-0.0501079 0.0121199 0)
(-0.0586959 0.0056102 0)
(-0.0685848 -0.00491138 0)
(-0.0788452 -0.0211794 0)
(-0.0859015 -0.044988 0)
(-0.081262 -0.0780805 0)
(-0.0344424 -0.110348 0)
(-0.000456591 0.013159 0)
(-0.00250235 0.0214448 0)
(-0.00542856 0.0232723 0)
(-0.00817799 0.0235143 0)
(-0.0109915 0.0235033 0)
(-0.0138231 0.0235064 0)
(-0.0167512 0.0235764 0)
(-0.0198725 0.0237267 0)
(-0.0233219 0.0239493 0)
(-0.0272867 0.0242023 0)
(-0.0320231 0.0243861 0)
(-0.0378783 0.0243026 0)
(-0.0453147 0.0235848 0)
(-0.0549247 0.0215987 0)
(-0.0675099 0.0173384 0)
(-0.0841412 0.0090992 0)
(-0.104511 -0.00683506 0)
(-0.120796 -0.0406838 0)
(-0.110504 -0.108463 0)
(-0.0324655 -0.183871 0)
(-0.000432031 0.0145955 0)
(-0.00250383 0.0239982 0)
(-0.00548185 0.0260374 0)
(-0.00822266 0.0262757 0)
(-0.0109933 0.0262626 0)
(-0.0137356 0.0263192 0)
(-0.0165393 0.0265282 0)
(-0.019514 0.026941 0)
(-0.0228141 0.0275981 0)
(-0.0266634 0.0285247 0)
(-0.0313841 0.0297161 0)
(-0.0374485 0.0311105 0)
(-0.0455543 0.0325425 0)
(-0.056728 0.0336884 0)
(-0.072634 0.0339674 0)
(-0.0955804 0.0311486 0)
(-0.123938 0.0156033 0)
(-0.139378 -0.0418714 0)
(-0.1093 -0.165797 0)
(-0.0193463 -0.26276 0)
(-0.000422559 0.0160708 0)
(-0.00256611 0.0267449 0)
(-0.00561386 0.0290099 0)
(-0.0083148 0.0292551 0)
(-0.0109848 0.0291628 0)
(-0.0135601 0.0291747 0)
(-0.0161302 0.0294242 0)
(-0.0188044 0.0300271 0)
(-0.0217417 0.031097 0)
(-0.0251753 0.032759 0)
(-0.0294523 0.0351585 0)
(-0.0350995 0.0384683 0)
(-0.0429212 0.0429005 0)
(-0.0540832 0.0486226 0)
(-0.0705137 0.0552961 0)
(-0.094076 0.0578367 0)
(-0.121572 0.0365498 0)
(-0.126193 -0.0564539 0)
(-0.0863308 -0.227004 0)
(-0.0283256 -0.321946 0)
(-0.000358015 0.0174139 0)
(-0.00256256 0.0290301 0)
(-0.00574776 0.0313048 0)
(-0.00846451 0.0312512 0)
(-0.011114 0.0310451 0)
(-0.0134803 0.031076 0)
(-0.0156921 0.0314704 0)
(-0.0178467 0.0323248 0)
(-0.0200879 0.0337806 0)
(-0.0226087 0.0360368 0)
(-0.0256888 0.0393775 0)
(-0.0297546 0.0442031 0)
(-0.0355399 0.0511318 0)
(-0.0440396 0.0606454 0)
(-0.0569523 0.0724921 0)
(-0.0740835 0.0767411 0)
(-0.094843 0.0475176 0)
(-0.0884695 -0.0741885 0)
(-0.0680554 -0.262034 0)
(-0.0315585 -0.3836 0)
(-0.000626856 0.0191584 0)
(-0.00328948 0.0329504 0)
(-0.00654413 0.0354531 0)
(-0.00903955 0.0356806 0)
(-0.0112124 0.0350507 0)
(-0.0131433 0.0346461 0)
(-0.014883 0.0345762 0)
(-0.0164936 0.0351045 0)
(-0.0180283 0.0364488 0)
(-0.0195775 0.0389038 0)
(-0.0212872 0.0428708 0)
(-0.0233397 0.0489401 0)
(-0.0262675 0.0581621 0)
(-0.0299228 0.0707632 0)
(-0.0360088 0.0866862 0)
(-0.0397062 0.0890483 0)
(-0.0508533 0.0545797 0)
(-0.035484 -0.0830994 0)
(-0.0495259 -0.275221 0)
(-0.0081008 -0.428899 0)
(0.000136551 0.0213685 0)
(-0.00225379 0.0341568 0)
(-0.00636551 0.0358774 0)
(-0.00926843 0.034462 0)
(-0.0121673 0.0336601 0)
(-0.0139337 0.0333322 0)
(-0.015221 0.0335896 0)
(-0.0159732 0.0344416 0)
(-0.0163085 0.0360616 0)
(-0.016246 0.0387004 0)
(-0.015794 0.04279 0)
(-0.0146935 0.0488144 0)
(-0.0135215 0.05796 0)
(-0.0100972 0.0695456 0)
(-0.00903418 0.0844358 0)
(0.00271213 0.0857429 0)
(-0.00290445 0.0504729 0)
(0.0164586 -0.0791205 0)
(-0.0279764 -0.272554 0)
(0.00276776 -0.444876 0)
(-0.0030165 0.0201389 0)
(-0.0074893 0.0410879 0)
(-0.00973904 0.0435662 0)
(-0.0116631 0.0441769 0)
(-0.0124667 0.0417286 0)
(-0.0133401 0.0400513 0)
(-0.013873 0.0385613 0)
(-0.0140855 0.0379504 0)
(-0.0137967 0.0382406 0)
(-0.0128251 0.0397273 0)
(-0.0110446 0.04272 0)
(-0.00768548 0.0476162 0)
(-0.00376731 0.0558287 0)
(0.00480768 0.0661913 0)
(0.0120166 0.0797073 0)
(0.0330162 0.0827296 0)
(0.0320442 0.0481836 0)
(0.0626852 -0.0577451 0)
(-0.0109403 -0.251219 0)
(0.0144295 -0.45443 0)
(0.00357796 0.0346699 0)
(-0.00119902 0.0390425 0)
(-0.011291 0.038495 0)
(-0.013424 0.0334705 0)
(-0.0168132 0.0322002 0)
(-0.0168742 0.0315788 0)
(-0.016923 0.0316169 0)
(-0.0159042 0.0319773 0)
(-0.0142341 0.0328092 0)
(-0.0116008 0.0341887 0)
(-0.00789764 0.0364673 0)
(-0.00164778 0.0397538 0)
(0.00562324 0.0449009 0)
(0.0193978 0.0515281 0)
(0.0318942 0.0569914 0)
(0.0593355 0.0584651 0)
(0.0658918 0.0255312 0)
(0.0874981 -0.047689 0)
(0.00360426 -0.220323 0)
(0.0392991 -0.441231 0)
(-0.00359594 0.0126147 0)
(-0.00430054 0.0590782 0)
(0.00109829 0.0571103 0)
(-0.00716091 0.0556789 0)
(-0.00977448 0.0488728 0)
(-0.0131054 0.0450312 0)
(-0.0146423 0.0411313 0)
(-0.0148603 0.038722 0)
(-0.0137076 0.0367619 0)
(-0.0109603 0.0356429 0)
(-0.0068375 0.0351241 0)
(6.91394e-07 0.0352885 0)
(0.00808617 0.0373249 0)
(0.0209705 0.03998 0)
(0.03305 0.045275 0)
(0.0558506 0.0465972 0)
(0.0595918 0.0297205 0)
(0.0855472 -0.000853378 0)
(0.0378829 -0.18468 0)
(0.0626814 -0.415453 0)
(-0.077245 0.052054 0)
(-0.0563559 0.0290833 0)
(-0.0779498 0.0379323 0)
(-0.0564249 0.0366342 0)
(-0.0523998 0.0323951 0)
(-0.0375951 0.0306235 0)
(-0.0267114 0.028542 0)
(-0.0146164 0.0268019 0)
(-0.00237858 0.0253707 0)
(0.00945031 0.0239655 0)
(0.0212696 0.0230749 0)
(0.0350484 0.022076 0)
(0.0453462 0.0217911 0)
(0.0657606 0.0219953 0)
(0.0742385 0.018383 0)
(0.110567 0.0205497 0)
(0.112494 -0.0098648 0)
(0.154209 -0.0411456 0)
(0.128647 -0.209344 0)
(0.110843 -0.383928 0)
(0.0843153 0.123652 0)
(0.113949 0.0746202 0)
(0.16569 0.0563203 0)
(0.212243 0.0423122 0)
(0.241783 0.0335837 0)
(0.276125 0.0270311 0)
(0.295659 0.0222779 0)
(0.325742 0.0192118 0)
(0.339133 0.0163885 0)
(0.366726 0.0147437 0)
(0.37494 0.0132696 0)
(0.403997 0.0121419 0)
(0.405053 0.0111022 0)
(0.437487 0.0106326 0)
(0.431849 0.00904996 0)
(0.463501 0.00581344 0)
(0.444399 0.00041602 0)
(0.456041 -0.0194734 0)
(0.362112 -0.0555549 0)
(0.231139 -0.119925 0)
)
;

boundaryField
{
    movingWall
    {
        type            fixedValue;
        value           uniform (1 0 0);
    }
    fixedWalls
    {
        type            noSlip;
    }
    frontAndBack
    {
        type            empty;
    }
}


// ************************************************************************* //
