/*--------------------------------*- C++ -*----------------------------------*\
  =========                 |
  \\      /  F ield         | OpenFOAM: The Open Source CFD Toolbox
   \\    /   O peration     | Website:  https://openfoam.org
    \\  /    A nd           | Version:  9
     \\/     M anipulation  |
\*---------------------------------------------------------------------------*/
FoamFile
{
    format      ascii;
    class       volScalarField;
    location    "7";
    object      p;
}
// * * * * * * * * * * * * * * * * * * * * * * * * * * * * * * * * * * * * * //

dimensions      [0 2 -2 0 0 0 0];

internalField   nonuniform List<scalar> 
8000
(
-1.70951e-06
4.05154e-06
4.66321e-05
0.000116452
0.000218058
0.000352706
0.000521989
0.000727853
0.000971434
0.00125302
0.00157143
0.00192328
0.0023021
0.0026976
0.00309484
0.00347391
0.0038113
0.00407835
0.00426152
0.004316
-8.65094e-06
-3.38781e-06
3.90653e-05
0.000107534
0.000207182
0.000339292
0.000505826
0.000708719
0.000949437
0.00122864
0.00154564
0.00189737
0.0022778
0.00267738
0.0030821
0.00347137
0.00382077
0.00409947
0.00429298
0.00435025
-5.90849e-05
-5.55839e-05
-1.48255e-05
5.09368e-05
0.000147292
0.000275647
0.000438327
0.000637733
0.000876001
0.0011546
0.0014738
0.00183201
0.00222462
0.00264286
0.00307315
0.0034939
0.00387818
0.00418989
0.00440981
0.0044766
-0.000142277
-0.000140425
-0.000102251
-4.06163e-05
5.05718e-05
0.000172942
0.000329345
0.000522901
0.000756768
0.00103377
0.00135582
0.00172309
0.00213275
0.00257735
0.00304784
0.00351934
0.00396184
0.00433116
0.00459749
0.00468511
-0.000260834
-0.000261104
-0.000226574
-0.000170647
-8.66795e-05
2.72209e-05
0.00017453
0.000359261
0.000585854
0.000858921
0.00118269
0.00156003
0.00199067
0.00246617
0.00299568
0.00353883
0.00406604
0.00452376
0.00486466
0.0049921
-0.000413619
-0.000416555
-0.00038683
-0.00033845
-0.000264207
-0.000161982
-2.76621e-05
0.000143711
0.00035801
0.000621938
0.000942717
0.00132743
0.00178213
0.00231277
0.00289229
0.00352452
0.00416775
0.00475586
0.00521239
0.00541456
-0.000599028
-0.000605235
-0.000581589
-0.000542865
-0.000481332
-0.000394781
-0.000278574
-0.000126905
6.74919e-05
0.000313484
0.000621519
0.00100328
0.00147046
0.00203165
0.00268582
0.00342938
0.00422444
0.00499877
0.00563129
0.00597661
-0.00081499
-0.000825103
-0.000808846
-0.000782051
-0.000736564
-0.000670338
-0.000578514
-0.000454737
-0.000290666
-7.55304e-05
0.000204269
0.000565426
0.00102752
0.00161115
0.00233179
0.00318609
0.00416068
0.00518758
0.00607611
0.00671294
-0.00105891
-0.00107353
-0.00106585
-0.00105322
-0.0010272
-0.000986295
-0.000925892
-0.000839718
-0.000719078
-0.00055211
-0.000322963
-1.07842e-05
0.000411189
0.000975808
0.00171901
0.00267093
0.00383502
0.00517915
0.00643004
0.00760282
-0.00132781
-0.00134742
-0.00134912
-0.00135248
-0.00134902
-0.00133826
-0.00131647
-0.00127826
-0.00121578
-0.00111771
-0.000967856
-0.000743342
-0.000412357
6.80639e-05
0.000754446
0.00171343
0.00301578
0.00467676
0.0063895
0.00846558
-0.00161857
-0.00164348
-0.0016546
-0.00167497
-0.00169614
-0.00171938
-0.00174262
-0.00176232
-0.00177294
-0.00176587
-0.00172797
-0.00163944
-0.00147054
-0.00117626
-0.000689866
8.62525e-05
0.00130592
0.00315184
0.0051754
0.00837069
-0.00192848
-0.00195802
-0.00197666
-0.00201312
-0.0020592
-0.00211859
-0.00219137
-0.00227687
-0.00237324
-0.00247694
-0.00258174
-0.00267724
-0.00274677
-0.00276057
-0.00267112
-0.00239453
-0.00175109
-0.000224016
0.00191329
0.00705818
-0.00225901
-0.00229876
-0.0023236
-0.00237891
-0.00244645
-0.00253841
-0.00265766
-0.00280902
-0.00299692
-0.00322585
-0.00350055
-0.00382668
-0.0042136
-0.00466668
-0.00519472
-0.00573376
-0.00617241
-0.00513337
-0.00248634
0.00504511
-0.00259839
-0.00262343
-0.00264042
-0.00268991
-0.00277303
-0.00289987
-0.00307392
-0.00330039
-0.00358655
-0.00394354
-0.00438994
-0.00495139
-0.00567574
-0.00660199
-0.0078642
-0.00935967
-0.0112739
-0.0109824
-0.00829965
2.83368e-05
-0.0029802
-0.0030619
-0.00306682
-0.00316443
-0.00324492
-0.00338401
-0.00357263
-0.00383305
-0.00418127
-0.00463866
-0.00523827
-0.00601633
-0.00708799
-0.00844551
-0.0105878
-0.0129821
-0.0171738
-0.0190407
-0.0178198
-0.00892174
-0.00348172
-0.00335857
-0.00331385
-0.0032815
-0.00334963
-0.00350671
-0.00375326
-0.00409294
-0.00453753
-0.00510311
-0.00584376
-0.00676919
-0.00812467
-0.00965305
-0.0126783
-0.0155799
-0.0224946
-0.0265872
-0.0280727
-0.0146781
-0.00366802
-0.00407558
-0.00392965
-0.00414267
-0.00411995
-0.00424768
-0.0044055
-0.00468039
-0.00507952
-0.00562719
-0.00638824
-0.00732457
-0.00877732
-0.0104696
-0.0136357
-0.0170006
-0.024797
-0.0294522
-0.030831
-0.01021
-0.00560739
-0.00418321
-0.00402982
-0.00361466
-0.00359506
-0.00372608
-0.00400979
-0.00440225
-0.00492836
-0.00554173
-0.00640606
-0.0073675
-0.00879703
-0.0103787
-0.0131191
-0.0157151
-0.0215107
-0.0237011
-0.0223822
0.00786126
-0.00405801
-0.0063763
-0.00540063
-0.00575884
-0.00529532
-0.00526247
-0.00520502
-0.00533989
-0.00564816
-0.00610034
-0.00679706
-0.00759095
-0.0089446
-0.0102618
-0.0129764
-0.0149518
-0.0196239
-0.0170352
-0.00810558
0.0389454
-0.017229
-0.0046396
-0.0039888
-0.00348022
-0.00330208
-0.00340101
-0.00375191
-0.0041198
-0.00470824
-0.00527286
-0.00620155
-0.00702087
-0.00849772
-0.00963636
-0.0115164
-0.0114196
-0.0097126
0.00580456
0.0372094
0.115151
1.24313e-06
2.66746e-06
4.48518e-05
0.00011426
0.000215924
0.000350767
0.000520764
0.00072742
0.000972038
0.00125501
0.00157524
0.00192938
0.00231102
0.00271014
0.00311152
0.003495
0.00383651
0.00410594
0.00429006
0.00433697
-8.53825e-07
2.08819e-07
4.26659e-05
0.000110711
0.000210204
0.000342216
0.000508752
0.000711739
0.000952719
0.00123245
0.00155033
0.00190339
0.00228549
0.00268817
0.00309618
0.00348924
0.0038424
0.00412336
0.00431812
0.00436779
-4.99868e-05
-5.11241e-05
-1.03259e-05
5.49766e-05
0.00015114
0.000279347
0.000441943
0.000641366
0.000879838
0.00115895
0.0014791
0.00183883
0.00223379
0.0026554
0.00308961
0.00351515
0.0039044
0.00421956
0.00444158
0.00450005
-0.000131908
-0.000134938
-9.66736e-05
-3.55159e-05
5.54597e-05
0.000177651
0.000333926
0.000527462
0.000761509
0.00103904
0.00136215
0.0017313
0.00214432
0.00259354
0.00306856
0.00354647
0.00399631
0.00437112
0.0046412
0.00472069
-0.000249635
-0.000255024
-0.000220354
-0.000164885
-8.10964e-05
3.26676e-05
0.000179909
0.000364711
0.000591623
0.000865419
0.00119058
0.00157043
0.00200568
0.00249237
0.00302368
0.00357575
0.00411442
0.00458256
0.00493064
0.00505266
-0.000401669
-0.000409995
-0.00038007
-0.000332117
-0.000257995
-0.000155828
-2.14665e-05
0.000150131
0.000364962
0.000629923
0.000952504
0.00134007
0.00179841
0.00232954
0.00292722
0.00357576
0.00423833
0.00484686
0.00531892
0.00552875
-0.000586258
-0.000598175
-0.000574265
-0.000535937
-0.000474471
-0.000387897
-0.000271531
-0.000119468
7.57104e-05
0.000323109
0.000633537
0.00101919
0.00149221
0.00206088
0.00273531
0.00350228
0.00432962
0.00514391
0.00581327
0.00620734
-0.00080128
-0.000817491
-0.000800909
-0.000774494
-0.000729042
-0.00066274
-0.000570658
-0.000446329
-0.000281232
-6.42919e-05
0.000218591
0.000584986
0.00105609
0.00165617
0.00239389
0.00328546
0.00431553
0.00542019
0.00639011
0.00721062
-0.0010441
-0.00106529
-0.00105724
-0.00104499
-0.00101902
-0.000978035
-0.000917341
-0.000830527
-0.000708679
-0.000539586
-0.000306792
1.16216e-05
0.0004443
0.00102698
0.00180055
0.00279751
0.00405222
0.00554021
0.00697568
0.00871536
-0.00131164
-0.00133839
-0.0013397
-0.0013435
-0.00134016
-0.00132939
-0.00130738
-0.00126857
-0.00120485
-0.0011045
-0.000950617
-0.000719061
-0.000375723
0.000126887
0.000850911
0.00186688
0.00328904
0.00519301
0.00722159
0.010642
-0.0016007
-0.00163358
-0.0016444
-0.00166537
-0.00168679
-0.00171011
-0.00173327
-0.00175254
-0.00176213
-0.00175301
-0.00171135
-0.00161614
-0.00143577
-0.00112195
-0.00060236
0.000225352
0.0015208
0.00360596
0.00564849
0.0110255
-0.00190785
-0.0019457
-0.00196392
-0.00200092
-0.0020478
-0.00210798
-0.00218128
-0.00226685
-0.00236261
-0.00246468
-0.00256633
-0.0026568
-0.00271932
-0.0027263
-0.00264247
-0.00243239
-0.00191502
-0.000539238
-0.000363824
0.00710707
-0.00223578
-0.00228734
-0.00231229
-0.00236916
-0.00243772
-0.0025303
-0.00264987
-0.00280127
-0.00298886
-0.003217
-0.00349052
-0.00381658
-0.00420831
-0.004688
-0.00531437
-0.00619626
-0.00736181
-0.00710615
-0.00796973
0.000721393
-0.00256506
-0.00260048
-0.00261789
-0.00266763
-0.0027534
-0.00288246
-0.00305902
-0.00328756
-0.00357524
-0.00393316
-0.0043797
-0.00494427
-0.00568147
-0.0066701
-0.00811089
-0.01019
-0.0133469
-0.0144395
-0.0157223
-0.00749262
-0.00293465
-0.0030409
-0.00304724
-0.00315012
-0.00323453
-0.00337582
-0.00356611
-0.00382765
-0.00417651
-0.00463465
-0.00523359
-0.00602118
-0.00710086
-0.00856694
-0.0108917
-0.0139873
-0.01959
-0.0229174
-0.0258893
-0.0165886
-0.00341006
-0.00331454
-0.00327093
-0.00323257
-0.00330757
-0.00346978
-0.00372299
-0.00406771
-0.00451584
-0.00508559
-0.00581818
-0.00675822
-0.00808083
-0.00977343
-0.0127759
-0.0163946
-0.0242329
-0.0289482
-0.0348942
-0.0206192
-0.00343205
-0.00393406
-0.00385956
-0.00409957
-0.00409346
-0.00422603
-0.00438909
-0.00466798
-0.00506792
-0.00561808
-0.00635526
-0.00730598
-0.00873495
-0.0103805
-0.0136118
-0.0173156
-0.0251471
-0.0306871
-0.0350501
-0.0126001
-0.00545699
-0.00415637
-0.00395931
-0.00345005
-0.00344928
-0.00360629
-0.0039182
-0.00433437
-0.00486927
-0.0055141
-0.00633114
-0.00728699
-0.00865601
-0.0101965
-0.012776
-0.0156574
-0.0209868
-0.0239481
-0.0237705
0.00827987
-0.00251029
-0.00563027
-0.0049757
-0.00551173
-0.00511271
-0.00515922
-0.00515401
-0.00533128
-0.00564087
-0.00612109
-0.00674761
-0.00756687
-0.00875888
-0.010074
-0.0126691
-0.0149672
-0.0199011
-0.0184256
-0.00940869
0.0413713
-0.0165669
-0.00392251
-0.00320223
-0.00293202
-0.00292446
-0.00308977
-0.0035078
-0.00392145
-0.00451396
-0.00515944
-0.00598044
-0.00689875
-0.00817693
-0.00940214
-0.0110363
-0.0112379
-0.00953371
0.00642137
0.0441295
0.132426
5.47269e-06
5.45162e-06
4.75287e-05
0.000116843
0.000218676
0.000353921
0.000524402
0.000731889
0.000977716
0.00126236
0.00158484
0.00194195
0.00232737
0.00273091
0.00313735
0.00352618
0.0038728
0.00414602
0.00433254
0.00437744
5.37263e-06
4.83772e-06
4.72677e-05
0.000115129
0.000214658
0.000346853
0.000513749
0.000717352
0.000959288
0.00124043
0.0015603
0.00191608
0.00230186
0.00270897
0.00312218
0.00352092
0.00387967
0.00416498
0.00436274
0.00441056
-4.2863e-05
-4.5773e-05
-4.98546e-06
6.00985e-05
0.000156263
0.000284616
0.000447548
0.00064758
0.000887035
0.00116764
0.00148996
0.00185274
0.00225186
0.00267889
0.00311948
0.0035522
0.00394888
0.00427024
0.00449677
0.00455385
-0.000123772
-0.000128699
-9.04292e-05
-2.95158e-05
6.14409e-05
0.00018376
0.000340369
0.000534539
0.000769647
0.00104883
0.00137443
0.00174711
0.00216463
0.00262143
0.00310468
0.00359239
0.00405295
0.00443732
0.00471477
0.00479457
-0.000240611
-0.000248024
-0.000213327
-0.000158107
-7.43294e-05
3.95798e-05
0.000187201
0.000372726
0.000600862
0.000876604
0.00120475
0.00158902
0.002031
0.00252692
0.00306877
0.00363465
0.00418947
0.00467351
0.00503421
0.00516139
-0.000391712
-0.0004022
-0.000372225
-0.000324523
-0.000250401
-0.000148064
-1.32689e-05
0.000159156
0.000375399
0.000642635
0.000968761
0.00136172
0.00182792
0.00236919
0.00298285
0.00365182
0.00433915
0.0049745
0.00546887
0.00569551
-0.000575228
-0.000589464
-0.000565479
-0.000527419
-0.000465962
-0.000379217
-0.000262393
-0.000109433
8.73035e-05
0.000337258
0.000651741
0.00104368
0.00152637
0.0021107
0.00280416
0.00359941
0.00446405
0.00532293
0.0060328
0.00647127
-0.000788964
-0.00080767
-0.000791
-0.000764895
-0.000719501
-0.000653081
-0.000560584
-0.000435378
-0.000268692
-4.90714e-05
0.000238166
0.00061148
0.00109323
0.00170832
0.00247204
0.00340362
0.00448881
0.00566531
0.00670616
0.00763448
-0.00103018
-0.00105406
-0.00104593
-0.00103408
-0.00100828
-0.000967315
-0.00090636
-0.000818836
-0.000695574
-0.000523964
-0.000286921
3.85037e-05
0.000482568
0.00108298
0.0018818
0.00292981
0.00425849
0.00585524
0.00741146
0.00936395
-0.00129567
-0.00132532
-0.00132657
-0.00133091
-0.00132794
-0.00131745
-0.00129548
-0.00125633
-0.00119166
-0.00108939
-0.000932072
-0.000694658
-0.000341246
0.000179244
0.000936159
0.00199614
0.00349698
0.00554701
0.00775934
0.0114577
-0.00158197
-0.00161803
-0.00162891
-0.00165068
-0.00167276
-0.0016967
-0.00172035
-0.00173989
-0.00174934
-0.00173949
-0.00169626
-0.00159822
-0.00141285
-0.00108991
-0.000554695
0.000290004
0.0016375
0.00384034
0.00595237
0.0116727
-0.00188491
-0.00192612
-0.00194452
-0.00198254
-0.00203059
-0.00209203
-0.00216658
-0.00225331
-0.00235008
-0.00245301
-0.00255568
-0.00264783
-0.00271352
-0.00272702
-0.00266123
-0.00250529
-0.00207105
-0.000627203
-2.32306e-05
0.0072126
-0.00220721
-0.00226322
-0.00228875
-0.00234747
-0.00241787
-0.00251234
-0.00263378
-0.00278716
-0.00297701
-0.00320794
-0.00348565
-0.00381902
-0.0042239
-0.00472836
-0.00540584
-0.00639939
-0.00787451
-0.00775486
-0.00816683
-0.000560593
-0.00252645
-0.00256736
-0.00258575
-0.00263716
-0.00272532
-0.00285692
-0.00303644
-0.00326822
-0.0035596
-0.00392206
-0.00437468
-0.00494966
-0.00570497
-0.00673675
-0.0082663
-0.0105858
-0.0142647
-0.0158606
-0.0169743
-0.00964376
-0.00287851
-0.00299237
-0.00300151
-0.00310827
-0.00319757
-0.00334329
-0.00353783
-0.00380376
-0.00415725
-0.00462081
-0.00522558
-0.00602436
-0.00711783
-0.00863153
-0.011038
-0.0143583
-0.020461
-0.0241411
-0.0270759
-0.0181348
-0.00333967
-0.00325765
-0.00321571
-0.00317742
-0.0032554
-0.00342119
-0.00367928
-0.00402932
-0.00448298
-0.00505843
-0.00579311
-0.0067404
-0.00804983
-0.00977995
-0.0127486
-0.0164702
-0.0241782
-0.0283728
-0.0334047
-0.020475
-0.00326638
-0.00379531
-0.00374923
-0.00400031
-0.0040081
-0.00414926
-0.00432037
-0.00460785
-0.00501522
-0.00557312
-0.00630904
-0.00726733
-0.0086458
-0.0102733
-0.0134289
-0.0171276
-0.0241206
-0.0289273
-0.0316121
-0.0117313
-0.00537465
-0.00409342
-0.00387574
-0.00333156
-0.00332774
-0.0034922
-0.00381422
-0.00424461
-0.00478932
-0.00544972
-0.00625786
-0.00722542
-0.00853905
-0.010034
-0.0124164
-0.0152882
-0.0196933
-0.0220513
-0.0206188
0.00943006
-0.00203969
-0.00522532
-0.0046837
-0.00524991
-0.00486831
-0.00494352
-0.00494762
-0.00514854
-0.00547816
-0.00599504
-0.00662519
-0.00745597
-0.00861952
-0.0099336
-0.0123659
-0.0148142
-0.0192945
-0.017492
-0.00754595
0.0428188
-0.0164473
-0.00369119
-0.00292629
-0.00268654
-0.00269278
-0.00287899
-0.00330245
-0.00375394
-0.00433185
-0.00503984
-0.00580887
-0.00677486
-0.00799847
-0.00919194
-0.0106559
-0.0108408
-0.00865449
0.00777909
0.0476065
0.136854
1.01005e-05
9.26336e-06
5.12574e-05
0.000120531
0.000222599
0.000358323
0.00052956
0.000738166
0.000985565
0.00127235
0.00159765
0.00195837
0.00234829
0.00275719
0.00316968
0.00356491
0.00391768
0.00419577
0.00438564
0.00443018
1.11085e-05
9.78954e-06
5.21939e-05
0.000119991
0.000219691
0.000352267
0.000519803
0.000724391
0.000967761
0.00125091
0.0015735
0.00193286
0.00232323
0.00273592
0.00315557
0.0035613
0.00392694
0.00421789
0.0044197
0.00446751
-3.64263e-05
-4.01824e-05
5.88791e-07
6.55919e-05
0.000161912
0.000290631
0.000454201
0.000655238
0.000896188
0.00117894
0.00150422
0.001871
0.00227536
0.00270906
0.00315754
0.00359907
0.00400482
0.00433408
0.00456654
0.0046245
-0.000116481
-0.000122294
-8.403e-05
-2.3208e-05
6.78967e-05
0.000190578
0.00034784
0.000543065
0.000779781
0.00106133
0.00139028
0.00176756
0.00219123
0.00265662
0.00315019
0.00364996
0.00412356
0.00451993
0.00480691
0.00488979
-0.000232501
-0.000240847
-0.000206144
-0.00015102
-6.70868e-05
4.72045e-05
0.000195527
0.000382206
0.000612137
0.000890574
0.00122264
0.00161229
0.0020602
0.00256891
0.00312471
0.00370759
0.00428194
0.00478554
0.00516241
0.00529798
-0.00038272
-0.000394196
-0.000364206
-0.000316608
-0.000242326
-0.000139588
-4.04254e-06
0.00016964
0.000387878
0.000658182
0.000988952
0.00138898
0.00186686
0.00241969
0.0030517
0.00374488
0.00446181
0.00512969
0.00565242
0.00590001
-0.000565212
-0.000580506
-0.000556506
-0.000518573
-0.000456973
-0.000369839
-0.000252254
-9.79855e-05
0.000100877
0.000354178
0.00067383
0.00107367
0.00156833
0.00217001
0.00288723
0.0037162
0.00462513
0.00553734
0.00629837
0.00678657
-0.000777701
-0.000797557
-0.000780887
-0.000754964
-0.000709484
-0.000642743
-0.000549557
-0.000423106
-0.000254324
-3.13101e-05
0.000261299
0.000642996
0.00113761
0.00177213
0.0025661
0.00354305
0.00469236
0.00595375
0.00708746
0.00813032
-0.00101734
-0.00104249
-0.0010344
-0.00102283
-0.000997064
-0.000955928
-0.000894477
-0.000805952
-0.000680896
-0.000506253
-0.000264231
6.92521e-05
0.000526258
0.00114717
0.0019791
0.00308111
0.0044948
0.00621713
0.00793472
0.0101089
-0.00128074
-0.00131182
-0.00131319
-0.00131796
-0.00131523
-0.00130483
-0.00128271
-0.00124303
-0.00117723
-0.00107288
-0.000911978
-0.000668513
-0.000304904
0.000233021
0.00101954
0.0021279
0.00371945
0.00592058
0.00837853
0.012416
-0.00156419
-0.00160193
-0.00161308
-0.00163553
-0.00165812
-0.00168252
-0.00170653
-0.00172626
-0.00173565
-0.00172539
-0.00168127
-0.00158169
-0.00139395
-0.00106737
-0.000526892
0.000323686
0.00169801
0.00397123
0.00628419
0.012374
-0.001863
-0.00190612
-0.00192494
-0.00196388
-0.00201286
-0.00207533
-0.00215095
-0.00223883
-0.00233693
-0.00244165
-0.00254713
-0.00264455
-0.00272092
-0.00275706
-0.00274059
-0.00268869
-0.00241087
-0.00120177
-0.000573482
0.00678292
-0.00217975
-0.00223841
-0.00226478
-0.00232521
-0.00239714
-0.00249324
-0.00261641
-0.00277183
-0.00296443
-0.00319966
-0.00348491
-0.00383327
-0.00426944
-0.00484123
-0.00566423
-0.00697536
-0.00888558
-0.00943979
-0.00970036
-0.00247671
-0.00248984
-0.002534
-0.0025535
-0.0026065
-0.00269646
-0.00283022
-0.00301241
-0.00324747
-0.00354323
-0.00391216
-0.00437574
-0.00497168
-0.00576984
-0.00689021
-0.0086044
-0.0112983
-0.0157752
-0.0183038
-0.0196512
-0.0123527
-0.00282716
-0.0029462
-0.00295798
-0.00306885
-0.00316176
-0.00331119
-0.00350937
-0.00377934
-0.00413771
-0.00460819
-0.00522413
-0.00604383
-0.00717815
-0.00877559
-0.011371
-0.0149897
-0.0219531
-0.0261054
-0.0299455
-0.0204698
-0.00327232
-0.00319826
-0.00315903
-0.00312292
-0.00320287
-0.00337174
-0.00363393
-0.00398882
-0.00444804
-0.00503002
-0.00577287
-0.00673456
-0.00806472
-0.00984611
-0.0129318
-0.0167607
-0.0250071
-0.0287872
-0.0347207
-0.0211359
-0.0031468
-0.00369293
-0.00365771
-0.00392114
-0.00393702
-0.00408572
-0.00426289
-0.00455645
-0.00496882
-0.00553144
-0.00626879
-0.00723043
-0.00859913
-0.0102206
-0.0134114
-0.0171097
-0.0239762
-0.0283735
-0.0315198
-0.0108695
-0.00524321
-0.00399675
-0.00377642
-0.00323106
-0.00322474
-0.00339266
-0.00372069
-0.0041593
-0.00471084
-0.00537993
-0.00618611
-0.00715726
-0.00844477
-0.00991136
-0.0122286
-0.015004
-0.0191432
-0.0210082
-0.020094
0.011058
-0.00174426
-0.00505012
-0.00451576
-0.00511009
-0.00472717
-0.0048157
-0.00482773
-0.00504249
-0.00537979
-0.00589723
-0.00653158
-0.00735455
-0.00851242
-0.00981331
-0.0122102
-0.0146527
-0.0190677
-0.0167785
-0.00729764
0.0449289
-0.0162327
-0.00346259
-0.00267417
-0.00244932
-0.00247754
-0.0026846
-0.00312542
-0.00359806
-0.00418376
-0.00491602
-0.0056827
-0.00664937
-0.00787699
-0.00901424
-0.0104478
-0.0105175
-0.00823395
0.00905089
0.0489183
0.140695
1.4778e-05
1.37065e-05
5.57584e-05
0.000125152
0.000227557
0.000363851
0.000535954
0.000745806
0.000994934
0.00128404
0.00161239
0.001977
0.0023717
0.00278627
0.00320514
0.00360712
0.00396644
0.00424997
0.00444371
0.00448905
1.62574e-05
1.46662e-05
5.71387e-05
0.000125044
0.000225062
0.000358183
0.000526558
0.000732367
0.00097745
0.00126293
0.00158863
0.00195198
0.00234737
0.00276606
0.00319262
0.00360578
0.00397879
0.00427599
0.00448239
0.00453138
-3.08071e-05
-3.48624e-05
5.97935e-06
7.10826e-05
0.00016772
0.000296987
0.000461417
0.000663723
0.000906484
0.00119174
0.00152041
0.00189168
0.0023018
0.00274259
0.00319942
0.00365026
0.00406557
0.00440333
0.00464225
0.00470232
-0.000110229
-0.00011636
-7.80227e-05
-1.71077e-05
7.43135e-05
0.000197554
0.000355709
0.000552278
0.000790949
0.00107527
0.00140806
0.00179055
0.00222117
0.00269532
0.00319964
0.00371191
0.00419895
0.00460785
0.00490474
0.00499172
-0.000225564
-0.000234251
-0.000199474
-0.000144262
-6.00075e-05
5.48612e-05
0.000204123
0.000392246
0.000624321
0.000905869
0.00124237
0.00163829
0.00209536
0.00261449
0.00318438
0.00378453
0.00437843
0.00490152
0.00529441
0.00543838
-0.000375001
-0.000386848
-0.000356786
-0.000309113
-0.000234515
-0.000131193
5.32452e-06
0.000180533
0.000401088
0.00067483
0.00101061
0.00141778
0.00190509
0.00247269
0.0031235
0.00384063
0.00458621
0.00528492
0.00583433
0.00609941
-0.000556566
-0.000572267
-0.000548209
-0.000510233
-0.000448347
-0.00036066
-0.000242122
-8.63127e-05
0.000114948
0.000371902
0.000697033
0.001105
0.00161155
0.0022307
0.00297152
0.00383284
0.00478315
0.00574351
0.00654996
0.00707489
-0.000767916
-0.000788226
-0.000771529
-0.000745625
-0.000699934
-0.000632733
-0.000538703
-0.000410829
-0.000239757
-1.31502e-05
0.000285006
0.000675173
0.0011826
0.00183646
0.00265931
0.00367808
0.00488493
0.0062195
0.0074311
0.00854969
-0.00100611
-0.00103177
-0.00102371
-0.00101226
-0.000986419
-0.000945002
-0.000882943
-0.000793309
-0.00066637
-0.000488648
-0.00024169
9.96357e-05
0.000569064
0.00120945
0.00207212
0.00322225
0.00470931
0.00653504
0.00838545
0.010685
-0.0012676
-0.00129926
-0.00130075
-0.0013058
-0.0013032
-0.0012928
-0.00127046
-0.00123022
-0.00116332
-0.00105704
-0.000892864
-0.00064396
-0.000271297
0.000281846
0.00109399
0.00224474
0.0039132
0.00623798
0.00890684
0.0130971
-0.00154848
-0.00158691
-0.00159832
-0.00162127
-0.00164427
-0.00166906
-0.00169338
-0.00171334
-0.00172282
-0.00171247
-0.00166801
-0.0015677
-0.00137857
-0.00104925
-0.00050372
0.000356413
0.00175871
0.00409757
0.0066726
0.0128423
-0.00184367
-0.00188758
-0.00190681
-0.00194648
-0.00199621
-0.00205955
-0.00213618
-0.00222526
-0.00232494
-0.00243189
-0.00254088
-0.00264414
-0.0027306
-0.00278462
-0.00280354
-0.0028224
-0.00265697
-0.00155699
-0.000375393
0.0067057
-0.0021556
-0.00221534
-0.00224241
-0.00230412
-0.00237728
-0.00247483
-0.00259968
-0.00275727
-0.00295293
-0.00319292
-0.00348607
-0.00384769
-0.00430715
-0.00491956
-0.00582213
-0.00730525
-0.00958877
-0.0105611
-0.0102671
-0.00330556
-0.00245844
-0.00250406
-0.00252447
-0.00257877
-0.00267009
-0.00280561
-0.0029901
-0.00322828
-0.00352846
-0.0039041
-0.00437862
-0.00499354
-0.00582686
-0.00701333
-0.00886687
-0.0118403
-0.0169295
-0.0200056
-0.02106
-0.013548
-0.00278537
-0.00290619
-0.00291937
-0.00303296
-0.00312817
-0.00328041
-0.00348155
-0.00375518
-0.00411841
-0.00459609
-0.00522364
-0.00606284
-0.00723394
-0.00889646
-0.0116489
-0.0154999
-0.0231174
-0.0275036
-0.0312237
-0.0212781
-0.00321865
-0.00314784
-0.00311038
-0.00307656
-0.00315773
-0.0033287
-0.00359366
-0.00395225
-0.00441631
-0.00500483
-0.00575671
-0.00673196
-0.00808607
-0.0099018
-0.0131092
-0.0170115
-0.0257116
-0.0290337
-0.0345959
-0.0211142
-0.00307292
-0.00362349
-0.00358775
-0.00385764
-0.00387654
-0.00402953
-0.00420988
-0.00450705
-0.00492304
-0.00548965
-0.00623216
-0.00719639
-0.00856612
-0.0101382
-0.0134688
-0.0171188
-0.0239248
-0.0278987
-0.0302936
-0.0101959
-0.00514803
-0.00391707
-0.00369771
-0.00315728
-0.00314835
-0.00331703
-0.00364682
-0.00408886
-0.00464418
-0.00531745
-0.00612466
-0.00709598
-0.00837387
-0.00981416
-0.0121007
-0.0147697
-0.0186719
-0.0201283
-0.0186332
0.0121325
-0.00163353
-0.00496343
-0.00441981
-0.00502169
-0.00463295
-0.00472345
-0.00473462
-0.00495001
-0.00529198
-0.00580818
-0.00644947
-0.00726794
-0.0084285
-0.00971569
-0.0121054
-0.0145054
-0.0187599
-0.016054
-0.00610351
0.0461913
-0.016136
-0.00335698
-0.00255223
-0.00232371
-0.00235386
-0.0025648
-0.00300894
-0.00348766
-0.00407802
-0.00481818
-0.00558894
-0.00655411
-0.00778874
-0.0089022
-0.0103059
-0.0102874
-0.00776572
0.00986954
0.0502577
0.142414
1.91677e-05
1.80395e-05
6.01967e-05
0.00012979
0.000232591
0.000369511
0.000542538
0.000753696
0.00100461
0.00129609
0.00162752
0.001996
0.00239544
0.00281558
0.00324071
0.00364927
0.00401499
0.0043039
0.00450152
0.00454798
2.08634e-05
1.92117e-05
6.17954e-05
0.0001299
0.000230311
0.000364053
0.000533349
0.000740465
0.000987349
0.00127524
0.0016041
0.00197147
0.00237187
0.00279649
0.00322981
0.00365022
0.00403041
0.00433376
0.00454467
0.00459512
-2.58627e-05
-2.99841e-05
1.09714e-05
7.62737e-05
0.000173308
0.00030321
0.000468589
0.000672258
0.000916921
0.00120477
0.00153689
0.00191265
0.00232847
0.00277619
0.00324116
0.00370098
0.00412548
0.00447141
0.00471652
0.00477885
-0.000104805
-0.000111008
-7.25548e-05
-1.14415e-05
8.03838e-05
0.000204276
0.000363421
0.000561433
0.000802153
0.00108933
0.001426
0.00181368
0.00225109
0.00273373
0.00324839
0.00377257
0.00427226
0.00469294
0.00499905
0.00508991
-0.000219578
-0.000228344
-0.000193451
-0.000138045
-5.33816e-05
6.2156e-05
0.000212452
0.00040211
0.000636408
0.000921116
0.00126204
0.0016641
0.00212965
0.00265911
0.00324241
0.00385873
0.0044707
0.00501158
0.00541894
0.00557004
-0.000368347
-0.000380282
-0.000350113
-0.000302259
-0.000227261
-0.000123269
1.43046e-05
0.000191115
0.000414039
0.00069122
0.00103192
0.00144598
0.00194269
0.00252385
0.00319222
0.00393142
0.00470293
0.00542896
0.00600175
0.00628048
-0.000549107
-0.000564909
-0.000540763
-0.000502638
-0.000440388
-0.00035207
-0.000232507
-7.51035e-05
0.000128574
0.000389128
0.000719553
0.00113523
0.0016529
0.0022881
0.0030508
0.00394142
0.00492839
0.0059303
0.00677545
0.00732696
-0.000759459
-0.00077989
-0.000763142
-0.000737148
-0.00069117
-0.000623439
-0.000528506
-0.000399178
-0.000225832
4.26399e-06
0.000307709
0.000705815
0.00122505
0.00189638
0.00274565
0.00380147
0.00505821
0.00645448
0.0077306
0.00890027
-0.000996378
-0.00102219
-0.00101414
-0.0010027
-0.000976699
-0.000934932
-0.000872215
-0.000781456
-0.00065268
-0.000472025
-0.000220441
0.000128149
0.000608991
0.00126725
0.00215668
0.00334861
0.00489807
0.00680917
0.0087682
0.011147
-0.0012562
-0.00128805
-0.00128964
-0.00129483
-0.00129227
-0.00128179
-0.00125918
-0.00121837
-0.00115043
-0.00104239
-0.000875279
-0.000621541
-0.000240889
0.000325526
0.00115969
0.00234676
0.00407981
0.00650495
0.00934671
0.0136334
-0.00153487
-0.00157353
-0.00158517
-0.00160845
-0.00163174
-0.0016568
-0.00168138
-0.00170154
-0.00171117
-0.00170089
-0.0016564
-0.00155588
-0.00136609
-0.00103514
-0.000485893
0.000383534
0.00180986
0.00420727
0.00701606
0.0132234
-0.00182702
-0.0018712
-0.00189078
-0.00193098
-0.00198129
-0.00204534
-0.00212284
-0.00221307
-0.00231433
-0.00242365
-0.00253639
-0.0026459
-0.00274272
-0.00281445
-0.00286492
-0.00294014
-0.00286378
-0.00184798
-0.000301978
0.0066664
-0.00213505
-0.00219521
-0.00222283
-0.00228546
-0.00235955
-0.00245829
-0.00258463
-0.00274424
-0.00294294
-0.0031878
-0.00348925
-0.00386582
-0.00435039
-0.00500968
-0.00599815
-0.00763698
-0.0102131
-0.0114695
-0.0107057
-0.00389123
-0.00243222
-0.00247836
-0.00249948
-0.00255477
-0.00264717
-0.00278414
-0.00297061
-0.00321164
-0.0035161
-0.0038985
-0.00438433
-0.00501899
-0.00588841
-0.00713963
-0.00911988
-0.0123249
-0.017931
-0.0213827
-0.022182
-0.0144971
-0.00275234
-0.00287382
-0.00288773
-0.00300319
-0.00309987
-0.00325418
-0.00345767
-0.00373449
-0.00410234
-0.0045873
-0.00522683
-0.00608674
-0.00729763
-0.00902549
-0.0119186
-0.015974
-0.024159
-0.0288296
-0.0325076
-0.0220987
-0.00317577
-0.00310625
-0.00307009
-0.00303821
-0.0031204
-0.00329305
-0.00356019
-0.00392193
-0.00439053
-0.00498573
-0.00574817
-0.00674031
-0.00813034
-0.0100001
-0.0132987
-0.0173041
-0.0266052
-0.0295934
-0.0353012
-0.02134
-0.0030237
-0.00357626
-0.00353749
-0.00381119
-0.00383077
-0.00398628
-0.00416842
-0.00446794
-0.00488703
-0.0054575
-0.00620704
-0.00717955
-0.00857985
-0.0102497
-0.0134359
-0.017215
-0.02419
-0.0280279
-0.0303238
-0.00978644
-0.00507407
-0.00385173
-0.00363465
-0.00310022
-0.00309059
-0.0032599
-0.00359061
-0.00403419
-0.00459234
-0.00526862
-0.0060801
-0.00705414
-0.00834416
-0.00978
-0.0120462
-0.0146562
-0.0185355
-0.0197658
-0.0181343
0.012958
-0.00158387
-0.00492256
-0.00436249
-0.00496973
-0.00457496
-0.00466378
-0.00467316
-0.00488526
-0.00522936
-0.00574151
-0.00639003
-0.0072035
-0.00837815
-0.00965072
-0.012069
-0.0144125
-0.01863
-0.0156227
-0.00548899
0.0472105
-0.016062
-0.00328424
-0.00247117
-0.0022385
-0.00226997
-0.00248038
-0.00292792
-0.00340577
-0.00400252
-0.00474165
-0.00552184
-0.00648241
-0.00773196
-0.00882887
-0.0102404
-0.0101441
-0.00753576
0.0104358
0.0511038
0.143628
2.30186e-05
2.19155e-05
6.42053e-05
0.000134034
0.000237239
0.000374773
0.000548683
0.00076107
0.00101365
0.00130732
0.00164157
0.00201358
0.00241732
0.00284248
0.00327322
0.00368769
0.00405914
0.00435289
0.00455401
0.00460159
2.48207e-05
2.31843e-05
6.59021e-05
0.000134243
0.000235061
0.00036942
0.000539607
0.000747967
0.000996543
0.00128668
0.00161845
0.00198949
0.00239441
0.00282437
0.00326375
0.00369064
0.00407721
0.00438605
0.00460098
0.00465283
-2.16642e-05
-2.57714e-05
1.53197e-05
8.08603e-05
0.000178309
0.000308842
0.000475141
0.000680107
0.000926554
0.0012168
0.00155208
0.00193192
0.00235286
0.00280679
0.00327897
0.00374673
0.00417929
0.00453237
0.00478285
0.00484722
-0.000100251
-0.000106441
-6.78519e-05
-6.49934e-06
8.57473e-05
0.000210289
0.000370392
0.000569774
0.000812408
0.00110221
0.00144241
0.00183476
0.0022782
0.00276836
0.0032921
0.00382663
0.00433725
0.00476798
0.00508187
0.00517596
-0.000214581
-0.000223335
-0.000188309
-0.000132667
-4.75795e-05
6.86213e-05
0.000219912
0.000411017
0.000647374
0.000934963
0.00127987
0.00168734
0.0021602
0.00269877
0.00329373
0.00392392
0.00455114
0.00510682
0.00552599
0.00568259
-0.000362807
-0.000374735
-0.000344442
-0.000296364
-0.000220953
-0.000116303
2.22794e-05
0.000200585
0.000425677
0.000705954
0.00105101
0.0014711
0.001976
0.00256861
0.00325204
0.00400987
0.00480281
0.00555087
0.00614218
0.00643068
-0.000542903