/*--------------------------------*- C++ -*----------------------------------*\
  =========                 |
  \\      /  F ield         | OpenFOAM: The Open Source CFD Toolbox
   \\    /   O peration     | Website:  https://openfoam.org
    \\  /    A nd           | Version:  9
     \\/     M anipulation  |
\*---------------------------------------------------------------------------*/
FoamFile
{
    format      ascii;
    class       surfaceScalarField;
    location    "7";
    object      phi;
}
// * * * * * * * * * * * * * * * * * * * * * * * * * * * * * * * * * * * * * //

dimensions      [0 3 -1 0 0 0 0];

internalField   nonuniform List<scalar> 
22800
(
-3.79636e-06
4.17796e-06
-3.79046e-07
-1.03275e-05
6.61283e-06
-8.16867e-08
-1.74294e-05
7.10865e-06
-6.72767e-09
-2.46838e-05
7.20935e-06
4.50487e-08
-3.19479e-05
7.22222e-06
4.19068e-08
-3.91339e-05
7.18421e-06
1.72977e-09
-4.61374e-05
7.06261e-06
-5.90572e-08
-5.27974e-05
6.81283e-06
-1.52858e-07
-5.88936e-05
6.3797e-06
-2.83511e-07
-6.41369e-05
5.70042e-06
-4.57125e-07
-6.81637e-05
4.70728e-06
-6.80417e-07
-7.05361e-05
3.33762e-06
-9.65248e-07
-7.07731e-05
1.54178e-06
-1.30484e-06
-6.83685e-05
-7.11196e-07
-1.69339e-06
-6.28868e-05
-3.36737e-06
-2.11431e-06
-5.40635e-05
-6.28968e-06
-2.53364e-06
-4.19544e-05
-9.21785e-06
-2.89121e-06
-2.72074e-05
-1.16699e-05
-3.07708e-06
-1.138e-05
-1.27834e-05
-3.04407e-06
-9.34115e-06
-2.0388e-06
-6.21343e-06
1.13831e-05
-9.91715e-07
-1.60611e-05
1.72063e-05
-7.45838e-07
-2.66394e-05
1.83438e-05
-6.56858e-07
-3.73248e-05
1.84579e-05
-5.63241e-07
-4.78881e-05
1.83032e-05
-5.17645e-07
-5.81766e-05
1.79732e-05
-5.00494e-07
-6.80161e-05
1.74107e-05
-5.08628e-07
-7.71791e-05
1.65222e-05
-5.46363e-07
-8.53703e-05
1.51922e-05
-6.2137e-07
-9.22128e-05
1.32864e-05
-7.43465e-07
-9.72308e-05
1.06507e-05
-9.25397e-07
-9.98983e-05
7.17941e-06
-1.17425e-06
-9.96339e-05
2.77365e-06
-1.49635e-06
-9.57956e-05
-2.64346e-06
-1.90599e-06
-8.78075e-05
-9.00193e-06
-2.35353e-06
-7.53465e-05
-1.5937e-05
-2.81374e-06
-5.84846e-05
-2.2868e-05
-3.21171e-06
-3.80532e-05
-2.86872e-05
-3.41411e-06
-1.6162e-05
-3.13084e-05
-3.36622e-06
-2.33834e-05
-2.11973e-06
-6.73895e-06
1.93585e-05
-1.23647e-06
-1.74078e-05
2.8891e-05
-1.01582e-06
-2.88448e-05
3.07038e-05
-9.23024e-07
-4.03807e-05
3.08049e-05
-8.10961e-07
-5.17821e-05
3.04499e-05
-7.45283e-07
-6.28995e-05
2.97969e-05
-7.0637e-07
-7.35627e-05
2.87661e-05
-6.92165e-07
-8.35504e-05
2.72194e-05
-7.09435e-07
-9.25703e-05
2.49809e-05
-7.68717e-07
-0.000100245
2.18433e-05
-8.82673e-07
-0.000106108
1.75787e-05
-1.06459e-06
-0.000109563
1.1965e-05
-1.33106e-06
-0.000109916
4.82488e-06
-1.69755e-06
-0.000106415
-3.98436e-06
-2.16016e-06
-9.83313e-05
-1.43869e-05
-2.69895e-06
-8.51241e-05
-2.58683e-05
-3.27595e-06
-6.66795e-05
-3.75098e-05
-3.8029e-06
-4.37596e-05
-4.74933e-05
-4.11375e-06
-1.8755e-05
-5.21949e-05
-4.11812e-06
-3.94618e-05
-2.67655e-06
-6.81475e-06
2.76195e-05
-1.44619e-06
-1.77285e-05
4.10618e-05
-1.25713e-06
-2.94532e-05
4.35938e-05
-1.16528e-06
-4.13195e-05
4.37136e-05
-1.04238e-06
-5.31125e-05
4.32075e-05
-9.64646e-07
-6.47092e-05
4.23066e-05
-9.12898e-07
-7.597e-05
4.09134e-05
-8.8656e-07
-8.67058e-05
3.88496e-05
-8.94491e-07
-9.66546e-05
3.58797e-05
-9.49977e-07
-0.000105455
3.17132e-05
-1.06975e-06
-0.00011262
2.60173e-05
-1.27291e-06
-0.000117521
1.84458e-05
-1.58042e-06
-0.000119375
8.69098e-06
-2.01137e-06
-0.000117254
-3.49292e-06
-2.61286e-06
-0.000110058
-1.82631e-05
-3.31954e-06
-9.68668e-05
-3.49458e-05
-4.11398e-06
-7.71439e-05
-5.23474e-05
-4.8853e-06
-5.14085e-05
-6.78192e-05
-5.40956e-06
-2.24312e-05
-7.5633e-05
-5.53917e-06
-5.80628e-05
-3.83021e-06
-6.79601e-06
3.60462e-05
-1.63076e-06
-1.78716e-05
5.36056e-05
-1.4682e-06
-2.98223e-05
5.69238e-05
-1.37919e-06
-4.19805e-05
5.71223e-05
-1.25057e-06
-5.41583e-05
5.65536e-05
-1.16831e-06
-6.62726e-05
5.55347e-05
-1.11376e-06
-7.82308e-05
5.39598e-05
-1.08816e-06
-8.98958e-05
5.16175e-05
-1.10292e-06
-0.000101058
4.82165e-05
-1.17493e-06
-0.000111398
4.33802e-05
-1.32637e-06
-0.000120444
3.66478e-05
-1.58474e-06
-0.000127514
2.74982e-05
-1.98243e-06
-0.00013167
1.5405e-05
-2.55805e-06
-0.000131832
3.04273e-08
-3.36164e-06
-0.000126365
-1.93885e-05
-4.34154e-06
-0.000113772
-4.20263e-05
-5.51255e-06
-9.27904e-05
-6.65892e-05
-6.73946e-06
-6.32976e-05
-8.95941e-05
-7.71786e-06
-2.84753e-05
-0.000102331
-8.12422e-06
-8.04236e-05
-6.1145e-06
-6.74845e-06
4.46225e-05
-1.82778e-06
-1.79873e-05
6.65357e-05
-1.69124e-06
-3.01784e-05
7.0721e-05
-1.60611e-06
-4.26501e-05
7.10674e-05
-1.47338e-06
-5.52473e-05
7.05402e-05
-1.38953e-06
-6.79372e-05
6.95613e-05
-1.33663e-06
-8.06903e-05
6.80311e-05
-1.31816e-06
-9.34437e-05
6.57195e-05
-1.34858e-06
-0.000106069
6.2291e-05
-1.44936e-06
-0.000118327
5.72878e-05
-1.64976e-06
-0.000129804
5.01136e-05
-1.98825e-06
-0.000139826
4.00337e-05
-2.51353e-06
-0.000147359
2.6222e-05
-3.284e-06
-0.000150887
7.90715e-06
-4.34927e-06
-0.000148511
-1.59272e-05
-5.83653e-06
-0.000137628
-4.52575e-05
-7.65224e-06
-0.000115805
-7.87128e-05
-9.69922e-06
-8.16471e-05
-0.000112155
-1.1597e-05
-3.85187e-05
-0.000132815
-1.26442e-05
-0.000108498
-1.04443e-05
-6.66918e-06
5.33539e-05
-2.06229e-06
-1.80702e-05
7.98935e-05
-1.95675e-06
-3.0502e-05
8.50283e-05
-1.87553e-06
-4.32818e-05
8.55839e-05
-1.73671e-06
-5.62905e-05
8.51982e-05
-1.64924e-06
-6.95558e-05
8.44232e-05
-1.59659e-06
-8.31279e-05
8.31882e-05
-1.58508e-06
-9.70443e-05
8.1269e-05
-1.63315e-06
-0.000111296
7.83108e-05
-1.76827e-06
-0.000125775
7.37967e-05
-2.02936e-06
-0.000140198
6.70072e-05
-2.47054e-06
-0.000153982
5.69827e-05
-3.1654e-06
-0.000166063
4.25134e-05
-4.21004e-06
-0.000174673
2.22242e-05
-5.70741e-06
-0.000177374
-5.29859e-06
-7.92797e-06
-0.000170279
-4.15551e-05
-1.07974e-05
-0.000149069
-8.56128e-05
-1.43099e-05
-0.000109987
-0.00013318
-1.80573e-05
-5.59648e-05
-0.000166144
-2.06931e-05
-0.000145375
-1.9088e-05
-6.54753e-06
6.22536e-05
-2.35214e-06
-1.80958e-05
9.37283e-05
-2.28651e-06
-3.07411e-05
9.98811e-05
-2.20754e-06
-4.378e-05
0.00010068
-2.057e-06
-5.7129e-05
0.000100506
-1.95908e-06
-7.08834e-05
0.000100077
-1.8997e-06
-8.51887e-05
9.93826e-05
-1.889e-06
-0.000100209
9.82396e-05
-1.95014e-06
-0.0001161
9.63192e-05
-2.11811e-06
-0.000132954
9.30955e-05
-2.44447e-06
-0.000150717
8.77758e-05
-3.00529e-06
-0.000169035
7.92128e-05
-3.9124e-06
-0.000187012
6.58144e-05
-5.32403e-06
-0.000202823
4.54987e-05
-7.46313e-06
-0.000213369
1.5883e-05
-1.06355e-05
-0.000213653
-2.60507e-05
-1.52212e-05
-0.000196454
-8.14672e-05
-2.13443e-05
-0.000154057
-0.000146823
-2.87537e-05
-8.69933e-05
-0.000198025
-3.51829e-05
-0.000194646
-3.77226e-05
-6.38224e-06
7.13536e-05
-2.71775e-06
-1.80577e-05
0.000108109
-2.70503e-06
-3.08648e-05
0.000115312
-2.62411e-06
-4.40679e-05
0.000116334
-2.45145e-06
-5.76138e-05
0.000116383
-2.33021e-06
-7.16671e-05
0.000116381
-2.25012e-06
-8.64773e-05
0.000116419
-2.22601e-06
-0.000102356
0.000116405
-2.28677e-06
-0.000119661
0.000116099
-2.4757e-06
-0.000138757
0.00011505
-2.85865e-06
-0.000159941
0.000112499
-3.53821e-06
-0.000183286
0.000107233
-4.67544e-06
-0.000208349
9.73989e-05
-6.52167e-06
-0.000233666
8.02697e-05
-9.45377e-06
-0.000255896
5.20935e-05
-1.39802e-05
-0.000269427
8.73649e-06
-2.1257e-05
-0.000262893
-5.61972e-05
-3.18032e-05
-0.000222979
-0.000140582
-4.61555e-05
-0.000142516
-0.000216743
-6.17451e-05
-0.000257413
-7.97487e-05
-6.19138e-06
8.07337e-05
-3.18876e-06
-1.79899e-05
0.000123154
-3.24696e-06
-3.08934e-05
0.000131372
-3.15595e-06
-4.41255e-05
0.00013251
-2.9439e-06
-5.76511e-05
0.000132686
-2.77784e-06
-7.17012e-05
0.000133084
-2.65356e-06
-8.66272e-05
0.000133936
-2.59149e-06
-0.000102891
0.000135296
-2.62673e-06
-0.000121079
0.000137099
-2.81164e-06
-0.000141896
0.000139096
-3.22836e-06
-0.000166125
0.000140738
-4.01049e-06
-0.000194499
0.000140987
-5.38027e-06
-0.000227415
0.000138025
-7.71035e-06
-0.000264355
0.00012882
-1.16103e-05
-0.000302817
0.000108587
-1.80303e-05
-0.000336088
7.04037e-05
-2.83963e-05
-0.000352482
6.30498e-06
-4.61086e-05
-0.000328084
-9.24403e-05
-7.25391e-05
-0.000241031
-0.000198733
-0.000105063
-0.000339763
-0.000158681
-6.02539e-06
9.05717e-05
-3.8126e-06
-1.79943e-05
0.000139083
-3.95994e-06
-3.09334e-05
0.00014815
-3.83897e-06
-4.40331e-05
0.000149167
-3.557e-06
-5.7249e-05
0.000149217
-3.31475e-06
-7.08804e-05
0.000149829
-3.11382e-06
-8.5361e-05
0.000151395
-2.97754e-06
-0.000101275
0.000154158
-2.94714e-06
-0.000119408
0.000158312
-3.08129e-06
-0.000140785
0.000163946
-3.47288e-06
-0.000166717
0.000170948
-4.27808e-06
-0.000198789
0.000178825
-5.76542e-06
-0.000238727
0.000186371
-8.4087e-06
-0.000287911
0.00019106
-1.30556e-05
-0.000346393
0.000188192
-2.11234e-05
-0.000410527
0.000169481
-3.49434e-05
-0.000465843
0.000121146
-5.9525e-05
-0.000479278
1.95099e-05
-9.85159e-05
-0.000396749
-0.000146462
-0.0001348
-0.000525226
-0.000211286
-6.01011e-06
0.000101272
-4.69007e-06
-1.83124e-05
0.000156383
-4.99718e-06
-3.12435e-05
0.000165915
-4.83383e-06
-4.402e-05
0.000166395
-4.45119e-06
-5.65669e-05
0.000165822
-4.05855e-06
-6.92698e-05
0.00016623
-3.69805e-06
-8.26047e-05
0.000168144
-3.41463e-06
-9.72281e-05
0.000172035
-3.25401e-06
-0.000114056
0.000178418
-3.27757e-06
-0.000134369
0.000187843
-3.58305e-06
-0.000159949
0.000200866
-4.33856e-06
-0.000193242
0.000217957
-5.83931e-06
-0.000237534
0.000239276
-8.61242e-06
-0.000296719
0.000263805
-1.35605e-05
-0.000375006
0.000288501
-2.20217e-05
-0.000473627
0.000303502
-3.54004e-05
-0.000584119
0.000286777
-5.51385e-05
-0.00065781
0.000157802
-6.46013e-05
-0.000594766
-0.000203665
-5.8416e-06
-0.00106473
-5.52599e-05
-5.99654e-06
0.000113145
-5.8766e-06
-1.89406e-05
0.000175447
-6.12064e-06
-3.18934e-05
0.000184676
-5.80831e-06
-4.45879e-05
0.00018426
-5.17059e-06
-5.629e-05
0.000182132
-4.60773e-06
-6.75452e-05
0.00018159
-4.10411e-06
-7.88181e-05
0.000183101
-3.68412e-06
-9.08214e-05
0.000187409
-3.37104e-06
-0.00010449
0.0001953
-3.21373e-06
-0.00012113
0.000207774
-3.29142e-06
-0.000142661
0.000226128
-3.73047e-06
-0.000172016
0.000252046
-4.73398e-06
-0.000213939
0.000287829
-6.63035e-06
-0.000275262
0.00033479
-9.66123e-06
-0.00036759
0.000393641
-1.28118e-05
-0.000503261
0.000449988
-1.08152e-05
-0.00069242
0.00046222
1.3716e-05
-0.000862641
0.00021411
0.000113913
-0.000779418
-0.000636676
0.000349788
-0.00199139
0.000147237
-8.52085e-06
0.0001297
-8.03359e-06
-2.26367e-05
0.00019847
-8.90714e-06
-3.53877e-05
0.000205862
-8.43462e-06
-4.61366e-05
0.000202669
-7.66027e-06
-5.55239e-05
0.000198153
-6.6335e-06
-6.43725e-05
0.000196081
-5.64245e-06
-7.30828e-05
0.000196528
-4.71638e-06
-8.20256e-05
0.000200304
-3.95148e-06
-9.17261e-05
0.000208398
-3.39817e-06
-0.000103057
0.000222226
-3.12154e-06
-0.000117736
0.000244023
-3.21598e-06
-0.000138442
0.00027648
-3.72749e-06
-0.000171229
0.000325152
-4.53626e-06
-0.00022349
0.000391037
-3.98719e-06
-0.000319591
0.000486486
3.25634e-06
-0.000487413
0.000576688
4.1122e-05
-0.000777023
0.000597804
0.000154026
-0.00102547
8.00846e-05
0.000382473
-0.000810516
-0.00144373
0.000592103
-0.0028051
3.19964e-06
-5.3503e-06
0.000146099
-1.10494e-05
-2.2221e-05
0.000226105
-1.07638e-05
-3.61891e-05
0.000229574
-9.744e-06
-5.00049e-05
0.000224375
-7.89075e-06
-5.96715e-05
0.000214246
-6.42666e-06
-6.70413e-05
0.000208566
-5.11525e-06
-7.20632e-05
0.000205541
-3.9915e-06
-7.55676e-05
0.00020682
-3.01164e-06
-7.79937e-05
0.000213016
-2.19114e-06
-7.96876e-05
0.000225435
-1.51514e-06
-8.14402e-05
0.000246778
-1.00304e-06
-8.43201e-05
0.000279542
-1.8201e-07
-9.48916e-05
0.000334182
1.54129e-06
-0.000119901
0.000406724
9.32292e-06
-0.000202876
0.000534857
3.46037e-05
-0.000388131
0.000644558
0.000117385
-0.000747921
0.000649305
0.00030829
-0.000985193
-0.000219864
0.000537221
-0.000748626
-0.00215722
0.000476917
-0.00335137
-0.000202355
-3.14319e-05
0.000193271
-1.57402e-05
-4.61331e-05
0.000257291
-1.64854e-05
-5.51085e-05
0.000254311
-1.57616e-05
-5.81534e-05
0.000241935
-1.45144e-05
-5.98745e-05
0.000227894
-1.19273e-05
-6.14764e-05
0.000219637
-9.46903e-06
-6.26677e-05
0.000213767
-7.034e-06
-6.2613e-05
0.000211726
-4.96156e-06
-6.05344e-05
0.000214175
-3.23795e-06
-5.50283e-05
0.000221781
-1.85229e-06
-4.56621e-05
0.000238319
-9.06741e-07
-3.05338e-05
0.000263662
7.51805e-07
-1.34317e-05
0.000314018
3.06223e-06
-3.16596e-06
0.000379694
1.67638e-05
-2.68704e-05
0.000507677
5.08846e-05
-0.000160375
0.00061965
0.000158413
-0.000453708
0.000587808
0.00035483
-0.000687301
-0.000465934
0.000479662
-0.000683131
-0.00242015
0.000258762
-0.00377792
-0.000256588
1.37548e-05
0.000214566
-3.50497e-05
-2.51943e-05
0.000327645
-3.14042e-05
-5.15736e-05
0.0003018
-2.111e-05
-7.115e-05
0.000275357
-1.38455e-05
-7.93379e-05
0.000245687
-9.60513e-06
-8.12387e-05
0.000227815
-6.27707e-06
-7.73288e-05
0.000213302
-3.44509e-06
-6.94861e-05
0.000204842
-9.58351e-07
-5.72936e-05
0.000200946
1.03628e-06
-3.89719e-05
0.00020069
2.77005e-06
-1.16375e-05
0.000207565
3.41915e-06
2.69298e-05
0.000219143
5.95183e-06
8.34617e-05
0.00025043
7.05654e-06
0.000156573
0.000287773
1.88105e-05
0.000232104
0.00037977
5.23757e-05
0.000257844
0.000449688
0.000144222
9.60713e-05
0.000448332
0.000301249
-0.000242547
-0.000499033
0.000371717
-0.000458073
-0.00234838
0.000143751
-0.0038734
-0.000362587
-9.34351e-05
0.000334498
-2.64969e-05
-8.44048e-05
0.000346899
-2.82851e-05
-7.80114e-05
0.000326976
-3.1569e-05
-8.30214e-05
0.000314089
-3.37222e-05
-7.77052e-05
0.000266679
-2.63081e-05
-7.05346e-05
0.000239122
-1.84782e-05
-6.06699e-05
0.000214461
-1.10238e-05
-4.63643e-05
0.000195549
-5.01273e-06
-2.84054e-05
0.000183438
-4.50509e-07
-2.5917e-06
0.000171811
3.06456e-06
3.31167e-05
0.000168524
3.33293e-06
8.34005e-05
0.000163121
5.738e-06
0.000155237
0.000175478
3.1156e-06
0.000252973
0.000178247
1.17898e-05
0.000387165
0.000223062
2.25157e-05
0.000522007
0.000219255
9.55907e-05
0.000632435
0.00017985
0.000158055
0.000409507
-0.000485443
0.000209338
-1.64851e-05
-0.00204844
0.000126053
-0.00347898
-0.000410903
-0.000380981
0.000854124
-0.000138645
-0.00034194
0.000379874
-7.2015e-05
-0.000278664
0.000309037
-4.53378e-05
-0.000170219
0.000234812
-2.91681e-05
-6.43869e-05
0.0001798
-1.89535e-05
3.88203e-05
0.000142427
-6.51179e-06
0.000132469
0.000118674
2.13849e-06
0.000217196
0.000100624
1.01979e-05
0.000295781
9.03481e-05
1.45048e-05
0.000368737
7.93701e-05
1.94855e-05
0.000441431
7.74054e-05
1.84248e-05
0.000517195
6.86392e-05
1.87172e-05
0.000610115
7.37944e-05
8.76389e-06
0.000713894
6.39806e-05
1.04872e-05
0.000893741
6.13167e-05
-1.81019e-05
0.00105611
2.06125e-05
3.62691e-05
0.001267
-9.56514e-05
6.4619e-05
0.0012535
-0.000493156
2.12066e-05
0.000517619
-0.00146813
0.000155578
-0.00250725
-0.000454118
0.000959966
-0.000105842
0.00144349
-0.00010365
0.00185675
-0.000104225
0.00218888
-9.73138e-05
0.00245694
-8.8259e-05
0.00267752
-7.8155e-05
0.00286725
-7.10578e-05
0.00302907
-6.11906e-05
0.00317439
-5.49803e-05
0.00330052
-4.67564e-05
0.00341493
-3.70032e-05
0.00352556
-4.19898e-05
0.00361559
-1.62392e-05
0.00372395
-4.43743e-05
0.00378793
-2.6664e-06
0.00386045
-5.19103e-05
0.00374901
1.5787e-05
0.00332102
-6.51588e-05
0.00183896
1.39238e-05
-0.000668284
-5.8523e-06
6.08008e-06
-6.06834e-07
-1.58143e-05
1.03177e-05
-4.37436e-07
-2.65852e-05
1.11297e-05
-3.65539e-07
-3.7374e-05
1.11472e-05
-3.13304e-07
-4.79758e-05
1.096e-05
-3.16399e-07
-5.82629e-05
1.06507e-05
-3.61824e-07
-6.80603e-05
1.01856e-05
-4.4729e-07
-7.71396e-05
9.50535e-06
-5.7895e-07
-8.51998e-05
8.54127e-06
-7.64602e-07
-9.186e-05
7.2166e-06
-1.01346e-06
-9.66568e-05
5.45102e-06
-1.33468e-06
-9.90588e-05
3.17226e-06
-1.73554e-06
-9.84793e-05
3.33549e-07
-2.21781e-06
-9.43199e-05
-3.0845e-06
-2.76833e-06
-8.60837e-05
-6.98702e-06
-3.36352e-06
-7.34867e-05
-1.11731e-05
-3.95754e-06
-5.66321e-05
-1.52683e-05
-4.47744e-06
-3.63501e-05
-1.85521e-05
-4.80701e-06
-1.49643e-05
-1.9561e-05
-4.86892e-06
-1.32377e-05
-3.7654e-06
-1.04111e-05
1.66943e-05
-1.1948e-06
-2.64652e-05
2.67456e-05
-1.11963e-06
-4.35541e-05
2.8596e-05
-1.03419e-06
-6.04842e-05
2.84502e-05
-9.36174e-07
-7.68835e-05
2.77341e-05
-8.92379e-07
-9.24919e-05
2.66495e-05
-8.90836e-07
-0.00010702
2.51369e-05
-9.32253e-07
-0.000120118
2.30832e-05
-1.0254e-06
-0.000131365
2.03488e-05
-1.18229e-06
-0.00014025
1.67748e-05
-1.41697e-06
-0.000146158
1.2178e-05
-1.7438e-06
-0.000148439
6.45277e-06
-2.17352e-06
-0.000146411
-4.74271e-07
-2.71733e-06
-0.000139272
-8.77238e-06
-3.35676e-06
-0.000126436
-1.81128e-05
-4.06396e-06
-0.000107576
-2.8061e-05
-4.78586e-06
-8.28612e-05
-3.77662e-05
-5.42833e-06
-5.34233e-05
-4.55625e-05
-5.84162e-06
-2.24768e-05
-4.79561e-05
-5.91758e-06
-3.3353e-05
-4.48128e-06
-1.16065e-05
2.85263e-05
-1.46196e-06
-2.93825e-05
4.49402e-05
-1.43436e-06
-4.8241e-05
4.78759e-05
-1.3445e-06
-6.68771e-05
4.75018e-05
-1.22652e-06
-8.48991e-05
4.61721e-05
-1.16128e-06
-0.000102038
4.42195e-05
-1.13782e-06
-0.000117998
4.15643e-05
-1.15898e-06
-0.00013243
3.80417e-05
-1.23619e-06
-0.000144906
3.34418e-05
-1.38527e-06
-0.000154909
2.75194e-05
-1.62458e-06
-0.000161834
2.00109e-05
-1.97314e-06
-0.000164936
1.0675e-05
-2.45073e-06
-0.000163375
-6.61161e-07
-3.07134e-06
-0.00015627
-1.42085e-05
-3.82915e-06
-0.000142809
-2.95759e-05
-4.69709e-06
-0.000122417
-4.61121e-05
-5.61715e-06
-9.50432e-05
-6.24643e-05
-6.47838e-06
-6.17468e-05
-7.58847e-05
-7.0879e-06
-2.62053e-05
-8.03369e-05
-7.27886e-06
-5.66336e-05
-5.60119e-06
-1.19675e-05
4.07599e-05
-1.7123e-06
-3.04112e-05
6.38636e-05
-1.73681e-06
-4.99949e-05
6.79415e-05
-1.64712e-06
-6.93886e-05
6.73691e-05
-1.51595e-06
-8.82209e-05
6.54761e-05
-1.4364e-06
-0.000106253
6.27373e-05
-1.3989e-06
-0.000123224
5.90577e-05
-1.40881e-06
-0.00013882
5.42243e-05
-1.48078e-06
-0.000152647
4.79539e-05
-1.6352e-06
-0.0001642
3.99001e-05
-1.89703e-06
-0.000172841
2.9672e-05
-2.29395e-06
-0.000177768
1.68784e-05
-2.85619e-06
-0.000178068
1.2427e-06
-3.61547e-06
-0.000172507
-1.77966e-05
-4.58542e-06
-0.000159892
-3.97736e-05
-5.73749e-06
-0.000139136
-6.39642e-05
-7.01771e-06
-0.000109659
-8.85412e-05
-8.28493e-06
-7.22534e-05
-0.000109424
-9.2766e-06
-3.11743e-05
-0.000117239
-9.71576e-06
-8.39467e-05
-7.6914e-06
-1.22066e-05
5.32922e-05
-1.95642e-06
-3.12139e-05
8.34373e-05
-2.03468e-06
-5.14523e-05
8.87478e-05
-1.94704e-06
-7.15702e-05
8.80423e-05
-1.80591e-06
-9.12301e-05
8.56853e-05
-1.71764e-06
-0.000110242
8.231e-05
-1.67418e-06
-0.000128405
7.78162e-05
-1.6841e-06
-0.000145466
7.19486e-05
-1.76631e-06
-0.00016109
6.43506e-05
-1.94724e-06
-0.000174818
5.4562e-05
-2.26079e-06
-0.000186009
4.20267e-05
-2.74757e-06
-0.000193793
2.61317e-05
-3.45183e-06
-0.00019701
6.3121e-06
-4.41108e-06
-0.000194218
-1.82183e-05
-5.73201e-06
-0.000183559
-4.74288e-05
-7.34508e-06
-0.000163158
-8.0649e-05
-9.22885e-06
-0.000131501
-0.000115715
-1.12224e-05
-8.85738e-05
-0.000147112
-1.29567e-05
-3.93617e-05
-0.000160677
-1.38984e-05
-0.000118013
-1.14098e-05
-1.24734e-05
6.6167e-05
-2.22929e-06
-3.21299e-05
0.00010377
-2.36716e-06
-5.31287e-05
0.000110422
-2.28199e-06
-7.40853e-05
0.000109656
-2.13055e-06
-9.47039e-05
0.000106949
-2.03432e-06
-0.00011486
0.000103116
-1.98704e-06
-0.000134431
9.80702e-05
-2.00115e-06
-0.000153257
9.15275e-05
-2.10085e-06
-0.000171103
8.30669e-05
-2.32035e-06
-0.000187596
7.2111e-05
-2.70531e-06
-0.000202157
5.79134e-05
-3.31466e-06
-0.000213886
3.95694e-05
-4.22152e-06
-0.000221439
1.60979e-05
-5.51662e-06
-0.000223033
-1.36848e-05
-7.28943e-06
-0.000216037
-5.06514e-05
-9.60934e-06
-0.000197379
-9.4495e-05
-1.24645e-05
-0.000163966
-0.00014313
-1.56974e-05
-0.00011413
-0.000189719
-1.88268e-05
-5.33299e-05
-0.000213324
-2.07973e-05
-0.000163906
-1.78812e-05
-1.27804e-05
7.94441e-05
-2.55899e-06
-3.31894e-05
0.000124991
-2.76852e-06
-5.5055e-05
0.000133097
-2.68446e-06
-7.69464e-05
0.000132329
-2.51781e-06
-9.8615e-05
0.000129376
-2.40815e-06
-0.000120016
0.000125272
-2.35168e-06
-0.000141132
0.000119967
-2.36557e-06
-0.000161935
0.000113177
-2.48049e-06
-0.000182337
0.000104441
-2.74042e-06
-0.000202129
9.30803e-05
-3.20635e-06
-0.000220877
7.81521e-05
-3.96162e-06
-0.000237768
5.8413e-05
-5.11804e-06
-0.000251379
3.23228e-05
-6.82423e-06
-0.000259697
-1.81245e-06
-9.26116e-06
-0.000259123
-4.65481e-05
-1.26055e-05
-0.000245046
-0.0001024
-1.69699e-05
-0.00021186
-0.000168344
-2.22811e-05
-0.000154896
-0.00023675
-2.79902e-05
-7.89317e-05
-0.000277832
-3.21499e-05
-0.000232506
-2.94201e-05
-1.31213e-05
9.31844e-05
-2.9711e-06
-3.43777e-05
0.000147231
-3.27014e-06
-5.71892e-05
0.000156884
-3.18318e-06
-8.00611e-05
0.000156135
-2.99104e-06
-0.000102794
0.000153006
-2.85551e-06
-0.000125437
0.000148792
-2.77623e-06
-0.000148105
0.000143521
-2.776e-06
-0.000170939
0.000136954
-2.89284e-06
-0.000194072
0.000128637
-3.18203e-06
-0.000217551
0.000117839
-3.72314e-06
-0.000241232
0.000103458
-4.63071e-06
-0.000264582
8.39187e-05
-6.06806e-06
-0.000286382
5.70558e-05
-8.25775e-06
-0.000304325
2.01358e-05
-1.14677e-05
-0.000314505
-3.07203e-05
-1.62839e-05
-0.000310312
-9.89046e-05
-2.29091e-05
-0.000282634
-0.000185733
-3.16333e-05
-0.00022199
-0.000284126
-4.20217e-05
-0.000128239
-0.000355905
-5.0861e-05
-0.000347076
-5.13909e-05
-1.35013e-05
0.000107466
-3.49771e-06
-3.57009e-05
0.000170636
-3.91065e-06
-5.95111e-05
0.000181883
-3.81272e-06
-8.33527e-05
0.000181102
-3.57763e-06
-0.000107073
0.000177791
-3.39482e-06
-0.000130823
0.000173561
-3.26866e-06
-0.00015487
0.000168571
-3.22824e-06
-0.000179567
0.000162684
-3.31907e-06
-0.000205328
0.00015553
-3.60771e-06
-0.000232574
0.000146419
-4.19288e-06
-0.000261631
0.000134201
-5.22375e-06
-0.000292533
0.000117074
-6.92828e-06
-0.000324665
9.23193e-05
-9.65305e-06
-0.000356045
5.59903e-05
-1.39285e-05
-0.000383391
3.16712e-06
-2.05216e-05
-0.000398288
-7.49383e-05
-3.03259e-05
-0.000388001
-0.000183339
-4.44839e-05
-0.000336173
-0.000318962
-6.31472e-05
-0.000228992
-0.000442714
-8.21174e-05
-0.000560985
-9.48317e-05
-1.39517e-05
0.000122414
-4.18565e-06
-3.72179e-05
0.0001954
-4.74481e-06
-6.20651e-05
0.000208196
-4.6217e-06
-8.68115e-05
0.000207221
-4.31607e-06
-0.000111341
0.000203595
-4.0521e-06
-0.000135912
0.000199319
-3.84106e-06
-0.000160956
0.000194741
-3.71892e-06
-0.000187061
0.0001899
-3.73794e-06
-0.000214985
0.000184617
-3.97409e-06
-0.000245643
0.000178392
-4.54315e-06
-0.000280054
0.00017023
-5.62981e-06
-0.000319184
0.000158357
-7.53263e-06
-0.000363629
0.000139791
-1.07372e-05
-0.00041297
0.000109727
-1.60067e-05
-0.000464361
6.09882e-05
-2.44605e-05
-0.000512727
-1.65928e-05
-3.83752e-05
-0.000543684
-0.00013805
-6.0441e-05
-0.00053177
-0.000311364
-9.20513e-05
-0.000424341
-0.000528002
-0.000127204
-0.000982618
-0.000161388
-1.45399e-05
0.000138249
-5.10779e-06
-3.90676e-05
0.000221817
-5.84922e-06
-6.49996e-05
0.000235961
-5.67229e-06
-9.05513e-05
0.000234467
-5.25133e-06
-0.00011561
0.000230196
-4.85735e-06
-0.000140548
0.000225652
-4.50853e-06
-0.000165957
0.000221419
-4.24552e-06
-0.00019265
0.00021777
-4.12476e-06
-0.000221724
0.000214834
-4.2252e-06
-0.000254621
0.000212486
-4.66904e-06
-0.000293187
0.000210175
-5.65723e-06
-0.000339701
0.000206633
-7.52724e-06
-0.000396796
0.000199347
-1.08705e-05
-0.000467093
0.000183698
-1.67296e-05
-0.000552484
0.000152112
-2.68551e-05
-0.000652723
9.28722e-05
-4.41702e-05
-0.000757908
-1.83383e-05
-7.40515e-05
-0.000811114
-0.000242015
-0.000114659
-0.000678331
-0.000652229
-0.000143356
-0.00170619
-0.000166048
-1.54829e-05
0.000155438
-6.39598e-06
-4.16193e-05
0.000250358
-7.40179e-06
-6.86836e-05
0.000265334
-7.14251e-06
-9.48263e-05
0.00026271
-6.55206e-06
-0.000120003
0.000257251
-5.93682e-06
-0.000144717
0.000252017
-5.34861e-06
-0.000169665
0.000247798
-4.84584e-06
-0.00019584
0.00024518
-4.48825e-06
-0.000224644
0.00024471
-4.34932e-06
-0.000258028
0.000246832
-4.54489e-06
-0.000298705
0.000251784
-5.26997e-06
-0.00035044
0.000259389
-6.85993e-06
-0.000418384
0.000268607
-9.92748e-06
-0.000509303
0.00027663
-1.55742e-05
-0.0006315
0.000277837
-2.55493e-05
-0.000789248
0.0002572
-4.19805e-05
-0.000960436
0.000161633
-6.39215e-05
-0.00102487
-0.00017578
-6.64059e-05
-0.000756166
-0.000934666
7.89497e-06
-0.0025271
9.48513e-06
-1.62782e-05
0.000174003
-8.163e-06
-4.46009e-05
0.000281867
-9.30702e-06
-7.30759e-05
0.000296841
-8.8399e-06
-0.000100411
0.000292778
-7.90291e-06
-0.000125566
0.000284797
-6.99854e-06
-0.000149346
0.000277823
-6.13075e-06
-0.000172558
0.000272674
-5.34829e-06
-0.000196406
0.00027034
-4.68403e-06
-0.000222465
0.000271741
-4.18574e-06
-0.000252933
0.000277928
-3.91952e-06
-0.000291046
0.000290174
-4.00754e-06
-0.000341762
0.000310006
-4.63488e-06
-0.000412681
0.000339041
-6.14551e-06
-0.000514601
0.000377895
-9.00552e-06
-0.000660236
0.000423266
-1.2606e-05
-0.000848806
0.000445703
-1.07492e-05
-0.00103947
0.000345389
2.06293e-05
-0.00106728
-0.000173886
0.000139822
-0.00064234
-0.00135345
0.000343629
-0.00314497
0.000122768
-2.14624e-05
0.000198435
-1.10033e-05
-5.26695e-05
0.000316972
-1.28051e-05
-8.18966e-05
0.000329753
-1.21195e-05
-0.000107289
0.000321431
-1.09205e-05
-0.000130337
0.000310686
-9.47512e-06
-0.000151967
0.000301826
-8.01561e-06
-0.000172902
0.000295495
-6.60148e-06
-0.000193926
0.00029274
-5.32734e-06
-0.000216264
0.000294917
-4.23555e-06
-0.000241876
0.000303776
-3.35755e-06
-0.00027406
0.000321864
-2.72317e-06
-0.000317986
0.000352501
-2.29617e-06
-0.000382311
0.000400638
-1.80828e-06
-0.000477265
0.000468376
4.85243e-07
-0.000618145
0.000556845
1.05573e-05
-0.00079107
0.000607052
5.26981e-05
-0.000968431
0.000496287
0.000180489
-0.000990711
-0.000206182
0.000437049
-0.000551899
-0.00176747
0.000567319
-0.00363046
-6.32066e-05
-1.51805e-05
0.00021773
-1.51637e-05
-5.21205e-05
0.000359697
-1.65492e-05
-8.62753e-05
0.000369249
-1.50852e-05
-0.00011844
0.000358341
-1.26363e-05
-0.000143172
0.000339439
-1.0448e-05
-0.000163442
0.000325333
-8.35325e-06
-0.000179829
0.000314338
-6.44703e-06
-0.000194047
0.000308618
-4.67152e-06
-0.00020733
0.000309026
-3.01733e-06
-0.000221143
0.000317477
-1.40325e-06
-0.000237663
0.000337074
3.0686e-07
-0.000260572
0.000372567
2.66044e-06
-0.00029824
0.000433004
6.84269e-06
-0.000357608
0.000519188
1.78794e-05
-0.00046202
0.000646598
4.92627e-05
-0.000593907
0.000714771
0.000141553
-0.000756849
0.0006129
0.000354619
-0.000783532
-0.000254923
0.000612645
-0.00043022
-0.00208149
0.000437622
-0.0040488
-0.000214236
-5.66249e-05
0.000278822
-2.02075e-05
-8.99498e-05
0.000399033
-2.2496e-05
-0.000115392
0.00040037
-2.14401e-05
-0.000132281
0.00038008
-1.93643e-05
-0.000147253
0.000358739
-1.62561e-05
-0.00016131
0.000342963
-1.30412e-05
-0.00017406
0.000329828
-9.77441e-06
-0.000184785
0.000321145
-6.76337e-06
-0.000193226
0.000318227
-3.99835e-06
-0.000198761
0.000322575
-1.41504e-06
-0.000202126
0.000338406
1.12656e-06
-0.00020324
0.000369667
4.76667e-06
-0.000208325
0.000430439
1.07122e-05
-0.000213534
0.000512725
2.8436e-05
-0.000241218
0.000653476
7.16902e-05
-0.000280108
0.000723666
0.000188408
-0.000332979
0.000617445
0.000403155
-0.000377459
-0.000278837
0.000548056
-0.000193277
-0.0021843
0.000177391
-0.00425243
-0.000246233
2.51244e-06
0.000280379
-3.91196e-05
-7.39459e-05
0.00048351
-3.94233e-05
-0.000128155
0.000463424
-2.99549e-05
-0.000164499
0.00042485
-2.2271e-05
-0.000184458
0.000385974
-1.68806e-05
-0.000196207
0.000360539
-1.21038e-05
-0.000200466
0.000338504
-7.86208e-06
-0.000200028
0.000323625
-3.87688e-06
-0.000193996
0.000313565
-3.33932e-07
-0.00018116
0.000309651
2.85817e-06
-0.000158602
0.000313644
5.62303e-06
-0.000121777
0.000328681
1.0112e-05
-6.80571e-05
0.000368346
1.54297e-05
3.57987e-06
0.000425956
3.3943e-05
0.000108544
0.000530209
7.06779e-05
0.000210323
0.000593163
0.000172947
0.000260303
0.000534533
0.000334181
7.68861e-05
-0.000141389
0.000417686
8.5666e-05
-0.00207977
3.04358e-05
-0.00420753
-0.000321823
-5.05778e-05
0.000338556
-3.40954e-05
-4.11475e-05
0.000485066
-3.92708e-05
-6.8872e-05
0.000500272
-4.06927e-05
-0.000123689
0.000485554
-3.96087e-05
-0.000157395
0.000425313
-3.19414e-05
-0.000181572
0.000389938
-2.37001e-05
-0.000193058
0.000354489
-1.55231e-05
-0.000192096
0.000326008
-8.35703e-06
-0.000181878
0.000305254
-2.35721e-06
-0.00015796
0.000286153
2.64396e-06
-0.00012234
0.000275862
5.496e-06
-6.75243e-05
0.000269211
1.03918e-05
1.33121e-05
0.000279269
1.13566e-05
0.00012245
0.000301798
2.68098e-05
0.00028382
0.000348584
4.27706e-05
0.000455655
0.000396562
0.000120356
0.000702792
0.000274236
0.000171214
0.000704373
-0.000156972
0.000223341
0.000539759
-0.00183798
4.88822e-05
-0.00377235
-0.000306327
-0.000641173
0.000954805
-0.000113722
-0.000676111
0.000519357
-7.13687e-05
-0.000636937
0.000466236
-5.04755e-05
-0.000526125
0.000383975
-3.84011e-05
-0.000410452
0.000319564
-2.88771e-05
-0.000286169
0.000275922
-1.67787e-05
-0.000164284
0.000242538
-7.79608e-06
-4.52406e-05
0.00021582
1.34256e-06
7.10712e-05
0.000196484
6.96305e-06
0.00018302
0.000180217
1.34728e-05
0.000296908
0.000165055
1.53434e-05
0.000407912
0.000159859
1.70653e-05
0.000536484
0.000146449
1.30121e-05
0.000678326
0.000152748
1.76947e-05
0.000886594
0.000129914
-7.70002e-06
0.00113838
0.000128772
5.22731e-05
0.00144366
-3.39371e-05
6.75126e-05
0.00162996
-0.000325727
3.66238e-06
0.00125355
-0.00139244
8.64469e-05
-0.00267046
-0.000302463
0.000935838
-8.6875e-05
0.00144143
-8.98894e-05
0.00189484
-9.13907e-05
0.00226981
-8.83099e-05
0.00258556
-8.44518e-05
0.00286062
-7.72899e-05
0.00310514
-7.30392e-05
0.00332628
-6.65075e-05
0.00352694
-5.91631e-05
0.00371644
-5.60332e-05
0.00388628
-4.17857e-05
0.00405475
-5.06102e-05
0.00420734
-2.23761e-05
0.00436445
-4.87392e-05
0.00450181
-1.0107e-05
0.00463502
-5.6347e-05
0.00461175
5.12032e-06
0.00429957
-7.87135e-05
0.00293076
-9.69939e-06
-0.000407981
-6.26915e-06
6.35815e-06
-6.95836e-07
-1.69958e-05
1.10094e-05
-7.20165e-07
-2.857e-05
1.18943e-05
-6.85705e-07
-4.01159e-05
1.18836e-05
-6.50985e-07
-5.1411e-05
1.16368e-05
-6.58058e-07
-6.23168e-05
1.12494e-05
-7.05459e-07
-7.26537e-05
1.0686e-05
-7.96483e-07
-8.2181e-05
9.88708e-06
-9.38667e-07
-9.05863e-05