/*--------------------------------*- C++ -*----------------------------------*\
  =========                 |
  \\      /  F ield         | OpenFOAM: The Open Source CFD Toolbox
   \\    /   O peration     | Website:  https://openfoam.org
    \\  /    A nd           | Version:  9
     \\/     M anipulation  |
\*---------------------------------------------------------------------------*/
FoamFile
{
    format      ascii;
    class       volVectorField;
    location    "7";
    object      U;
}
// * * * * * * * * * * * * * * * * * * * * * * * * * * * * * * * * * * * * * //

dimensions      [0 1 -1 0 0 0 0];

internalField   nonuniform List<vector> 
8000
(
(-0.000129124 0.000143423 -2.15595e-05)
(-0.00065296 0.000244627 4.01716e-06)
(-0.00139403 0.000266653 1.05324e-05)
(-0.00210555 0.000274169 1.40728e-05)
(-0.00283533 0.000279632 1.38089e-05)
(-0.00356004 0.000284422 1.12954e-05)
(-0.00427182 0.000286678 6.67002e-06)
(-0.00495782 0.00028412 6.7502e-08)
(-0.00559923 0.000273976 -8.76526e-06)
(-0.00617089 0.000253081 -2.01438e-05)
(-0.00664021 0.00021815 -3.43486e-05)
(-0.00696703 0.000166824 -5.15142e-05)
(-0.0071052 9.61229e-05 -7.21889e-05)
(-0.00700438 3.54369e-06 -9.60048e-05)
(-0.00661584 -0.000109585 -0.000121891)
(-0.00590371 -0.000236392 -0.000147659)
(-0.00484677 -0.000365045 -0.000169293)
(-0.00351138 -0.000473647 -0.000179183)
(-0.00186576 -0.000525159 -0.000174321)
(-0.000469078 -0.000376094 -0.000105597)
(-0.000229065 0.00071761 -6.63378e-05)
(-0.00104271 0.00111026 -4.44998e-05)
(-0.002145 0.00118919 -3.76662e-05)
(-0.00320067 0.00120202 -3.09903e-05)
(-0.00426923 0.00119881 -2.76507e-05)
(-0.00531566 0.00118564 -2.60837e-05)
(-0.00632593 0.00115787 -2.59526e-05)
(-0.00728056 0.00110862 -2.75094e-05)
(-0.00815368 0.00102947 -3.12564e-05)
(-0.00891193 0.000910894 -3.77873e-05)
(-0.00951261 0.000742518 -4.77034e-05)
(-0.00990564 0.000513589 -6.14512e-05)
(-0.0100358 0.000216404 -7.96193e-05)
(-0.00984033 -0.000150569 -0.000102915)
(-0.00925615 -0.000579642 -0.000128721)
(-0.00823703 -0.0010487 -0.000155395)
(-0.00675703 -0.00151687 -0.00017801)
(-0.00490121 -0.00190833 -0.000187516)
(-0.00262836 -0.00208455 -0.000180716)
(-0.000676021 -0.00153941 -9.88179e-05)
(-0.000248132 0.00153891 -8.35879e-05)
(-0.00113073 0.00230475 -6.32217e-05)
(-0.00232411 0.00245187 -5.61321e-05)
(-0.00346416 0.002462 -4.81762e-05)
(-0.00461773 0.00243523 -4.34047e-05)
(-0.00574771 0.00238411 -4.02398e-05)
(-0.00684085 0.00230183 -3.83976e-05)
(-0.00787813 0.00217686 -3.82748e-05)
(-0.00883402 0.00199475 -4.05408e-05)
(-0.00967538 0.00173879 -4.59863e-05)
(-0.0103605 0.00139069 -5.53559e-05)
(-0.0108364 0.000931679 -6.95832e-05)
(-0.0110382 0.00034813 -8.9655e-05)
(-0.0108927 -0.000363909 -0.000115547)
(-0.0103239 -0.00119403 -0.000146113)
(-0.00926655 -0.00210325 -0.000179052)
(-0.00767116 -0.00301683 -0.000208598)
(-0.00561531 -0.00378977 -0.000223589)
(-0.00304099 -0.00414213 -0.000218908)
(-0.000790845 -0.00311295 -0.000125197)
(-0.000247471 0.002343 -9.76914e-05)
(-0.00114709 0.00348712 -7.9172e-05)
(-0.00237083 0.0037032 -7.21641e-05)
(-0.00354054 0.00371365 -6.35003e-05)
(-0.0047304 0.00366975 -5.79204e-05)
(-0.0059036 0.0035907 -5.38599e-05)
(-0.00705037 0.00346747 -5.11085e-05)
(-0.00815485 0.00328403 -5.01679e-05)
(-0.00919456 0.00301967 -5.18498e-05)
(-0.0101386 0.00264947 -5.7186e-05)
(-0.0109454 0.0021456 -6.73049e-05)
(-0.0115596 0.00148042 -8.34096e-05)
(-0.0119111 0.000629737 -0.000106705)
(-0.0119141 -0.000418921 -0.000140251)
(-0.0114649 -0.00166263 -0.000179953)
(-0.0104611 -0.0030506 -0.000224811)
(-0.00880718 -0.00447735 -0.000267631)
(-0.00655162 -0.00572379 -0.000293609)
(-0.00361448 -0.00633039 -0.000294776)
(-0.000962075 -0.00482012 -0.000185159)
(-0.000241757 0.00317762 -0.000109499)
(-0.00114936 0.00472246 -9.23663e-05)
(-0.00239628 0.00501353 -8.55701e-05)
(-0.00359045 0.00502872 -7.65972e-05)
(-0.00481419 0.0049739 -7.07875e-05)
(-0.00603187 0.00487608 -6.65955e-05)
(-0.00723887 0.00472478 -6.39046e-05)
(-0.0084243 0.00450019 -6.33433e-05)
(-0.00957103 0.00417566 -6.59032e-05)
(-0.0106529 0.00371761 -7.28999e-05)
(-0.011631 0.00308631 -8.59522e-05)
(-0.0124487 0.00223858 -0.000106942)
(-0.0130263 0.00113291 -0.000138235)
(-0.0132642 -0.000260986 -0.000182988)
(-0.013025 -0.00194628 -0.000237962)
(-0.0121507 -0.00388463 -0.000303946)
(-0.010476 -0.00594277 -0.000372277)
(-0.00797869 -0.00782174 -0.000422988)
(-0.00453576 -0.00881921 -0.000438186)
(-0.00125713 -0.00684096 -0.000307681)
(-0.000233728 0.00402713 -0.000121805)
(-0.0011481 0.00599466 -0.000105919)
(-0.00241971 0.00636818 -9.9425e-05)
(-0.00363984 0.00639464 -9.03025e-05)
(-0.00490017 0.00633864 -8.45207e-05)
(-0.00616666 0.00623663 -8.05654e-05)
(-0.00744127 0.00607791 -7.84361e-05)
(-0.00871999 0.00583994 -7.89205e-05)
(-0.00999371 0.00549086 -8.32449e-05)
(-0.0112446 0.00498845 -9.31016e-05)
(-0.0124407 0.00427949 -0.000110726)
(-0.0135284 0.00330113 -0.000138984)
(-0.0144249 0.00198584 -0.000181449)
(-0.0150063 0.000271296 -0.000241037)
(-0.0151025 -0.00187367 -0.00032508)
(-0.014488 -0.00444251 -0.000428152)
(-0.0128823 -0.00729149 -0.00054372)
(-0.0101249 -0.0100421 -0.000646938)
(-0.00601881 -0.0116573 -0.000697581)
(-0.00177336 -0.00931464 -0.000556059)
(-0.000223106 0.00489136 -0.00013636)
(-0.00114301 0.00730683 -0.000121966)
(-0.00244019 0.00777111 -0.000115811)
(-0.00368561 0.00781559 -0.000106466)
(-0.0049818 0.00776891 -0.000100644)
(-0.00629637 0.00767918 -9.6912e-05)
(-0.0076393 0.00753735 -9.54245e-05)
(-0.00901556 0.00731998 -9.71854e-05)
(-0.0104272 0.00699172 -0.000103748)
(-0.0118695 0.00650281 -0.000117343)
(-0.0133239 0.0057863 -0.000141089)
(-0.0147484 0.00475635 -0.000179257)
(-0.0160626 0.00331034 -0.00023743)
(-0.0171306 0.00133976 -0.00032146)
(-0.0177496 -0.00125074 -0.000449856)
(-0.0176055 -0.00450275 -0.00061558)
(-0.0162675 -0.00831759 -0.000818258)
(-0.0133182 -0.0122659 -0.00103192)
(-0.00844573 -0.0148462 -0.00117804)
(-0.00271089 -0.0124835 -0.00108545)
(-0.000209291 0.00577161 -0.000154278)
(-0.00113253 0.00866406 -0.000141881)
(-0.0024543 0.00922686 -0.000136007)
(-0.00372069 0.00929443 -0.000126146)
(-0.00504668 0.0092659 -0.000119924)
(-0.00640112 0.00920405 -0.000116067)
(-0.00780326 0.00910424 -0.000114951)
(-0.00926899 0.0089453 -0.000117849)
(-0.0108149 0.00869181 -0.000126747)
(-0.0124549 0.00829006 -0.000144608)
(-0.014193 0.00766246 -0.000175847)
(-0.0160114 0.00670149 -0.000227023)
(-0.0178498 0.00526469 -0.000307461)
(-0.0195772 0.00317664 -0.000430702)
(-0.0209614 0.000248614 -0.000616336)
(-0.0216108 -0.00366127 -0.000886812)
(-0.0209228 -0.00859748 -0.00124958)
(-0.0180306 -0.0141369 -0.00169055)
(-0.0125344 -0.018181 -0.00207739)
(-0.00451889 -0.0166675 -0.0022847)
(-0.000192144 0.00666988 -0.000176765)
(-0.00111655 0.010072 -0.000167141)
(-0.00246074 0.0107387 -0.000161347)
(-0.00374008 0.0108305 -0.000150388)
(-0.00508402 0.0108246 -0.000143037)
(-0.00646142 0.0108023 -0.000138286)
(-0.00790138 0.0107668 -0.000136799)
(-0.00943205 0.0107036 -0.0001402)
(-0.0110874 0.0105828 -0.000150976)
(-0.0129049 0.0103534 -0.000172961)
(-0.01492 0.0099343 -0.000212209)
(-0.0171556 0.0092024 -0.000278332)
(-0.0195993 0.00797884 -0.000386514)
(-0.0221622 0.00601495 -0.0005595)
(-0.0246148 0.00299429 -0.000827232)
(-0.026543 -0.00141308 -0.00127164)
(-0.0271652 -0.00742358 -0.00191369)
(-0.024929 -0.0148433 -0.00279824)
(-0.0195664 -0.0210011 -0.00378813)
(-0.00814575 -0.0220821 -0.00510783)
(-0.000172383 0.00759131 -0.000205591)
(-0.00109809 0.0115396 -0.000199838)
(-0.00246302 0.0123106 -0.000193681)
(-0.00374426 0.0124209 -0.000180619)
(-0.00508874 0.0124341 -0.000170878)
(-0.00646306 0.0124547 -0.000163881)
(-0.007906 0.0124981 -0.000160656)
(-0.00945787 0.0125613 -0.000163242)
(-0.0111711 0.0126279 -0.000174732)
(-0.0131109 0.0126604 -0.000200049)
(-0.0153537 0.0125898 -0.000247291)
(-0.0179798 0.012298 -0.000330071)
(-0.0210552 0.0115922 -0.000471476)
(-0.0245888 0.0101706 -0.000709504)
(-0.0284418 0.0075848 -0.00110343)
(-0.0321971 0.00323683 -0.00173755)
(-0.0350647 -0.00352113 -0.00284778)
(-0.0347801 -0.0127327 -0.00453762)
(-0.0313624 -0.021573 -0.00673965)
(-0.0152726 -0.0285591 -0.0109204)
(-0.00015213 0.00854807 -0.000243684)
(-0.00108538 0.0130818 -0.000242962)
(-0.00247287 0.0139467 -0.00023526)
(-0.00374301 0.0140582 -0.000218235)
(-0.00506596 0.0140745 -0.000204183)
(-0.00640212 0.0141289 -0.000193007)
(-0.00779936 0.0142519 -0.000185945)
(-0.00930769 0.0144574 -0.000185482)
(-0.0109948 0.0147496 -0.000195213)
(-0.0129507 0.0151173 -0.000220932)
(-0.0152922 0.0155227 -0.000272439)
(-0.0181661 0.0158816 -0.000366554)
(-0.0217457 0.0160288 -0.000532942)
(-0.026205 0.0156616 -0.000824748)
(-0.0316419 0.0142708 -0.00132917)
(-0.0379816 0.0110554 -0.00218753)
(-0.0444325 0.00486676 -0.00376291)
(-0.0479645 -0.00513323 -0.00651083)
(-0.0491749 -0.0172001 -0.00981871)
(-0.0274317 -0.0384763 -0.0177209)
(-0.000136901 0.00957289 -0.000297546)
(-0.00109841 0.0147626 -0.000306276)
(-0.00251759 0.0157099 -0.000296365)
(-0.00376089 0.0158123 -0.000273465)
(-0.00503561 0.0157912 -0.000250351)
(-0.00629057 0.0158354 -0.000229735)
(-0.00758209 0.0159995 -0.000214372)
(-0.00896548 0.016326 -0.000207089)
(-0.0105175 0.0168507 -0.000211825)
(-0.0123456 0.0176029 -0.000235033)
(-0.0145998 0.0186007 -0.000287805)
(-0.017489 0.0198361 -0.000389339)
(-0.0213015 0.0212417 -0.000573221)
(-0.026405 0.0226124 -0.000895524)
(-0.0332263 0.0235134 -0.00143778)
(-0.0422347 0.0230332 -0.0023025)
(-0.0533138 0.0195225 -0.00379856)
(-0.0625482 0.00895074 -0.00559002)
(-0.0716463 -0.0126738 -0.00399042)
(-0.0426443 -0.0671311 -0.0113039)
(-0.000112322 0.010651 -0.000370759)
(-0.00112591 0.0163875 -0.000374447)
(-0.00260176 0.0173203 -0.000354975)
(-0.00382264 0.0172665 -0.000316212)
(-0.00506135 0.0171711 -0.000282808)
(-0.00619842 0.0172211 -0.000254046)
(-0.00731276 0.0174619 -0.000231282)
(-0.00846049 0.0179317 -0.000216056)
(-0.0097214 0.0186843 -0.000211716)
(-0.0112032 0.0197938 -0.000223901)
(-0.0130595 0.0213567 -0.000261581)
(-0.0155214 0.0234774 -0.000338405)
(-0.0189613 0.0262566 -0.00047473)
(-0.0239405 0.0296809 -0.000682945)
(-0.0313601 0.0336054 -0.000908458)
(-0.0425752 0.03693 -0.000792252)
(-0.05963 0.0370497 0.000281512)
(-0.078192 0.0219804 0.00449991)
(-0.0979848 -0.0283535 0.0187082)
(-0.0512208 -0.143195 0.00779224)
(-0.000260597 0.0120804 -0.000511318)
(-0.00147858 0.0189869 -0.000557732)
(-0.00298767 0.0199157 -0.000527927)
(-0.00409762 0.0199723 -0.000480024)
(-0.00510386 0.019626 -0.000415214)
(-0.00600466 0.0194377 -0.000354172)
(-0.00687311 0.0194394 -0.000298718)
(-0.00774292 0.0197556 -0.00025533)
(-0.00865404 0.020494 -0.000227658)
(-0.00967088 0.0217889 -0.000220772)
(-0.0109123 0.0238234 -0.000242406)
(-0.0125801 0.0268336 -0.000296591)
(-0.0150808 0.0311878 -0.000375314)
(-0.0190206 0.0370508 -0.000371901)
(-0.0259076 0.0449131 7.49932e-05)
(-0.0379133 0.0525311 0.00232566)
(-0.0618585 0.0552336 0.00867862)
(-0.0929972 0.0218129 0.0218652)
(-0.116077 -0.0967393 0.0372908)
(-0.0387586 -0.252524 0.00201187)
(8.94518e-05 0.0140228 -0.000704691)
(-0.0012233 0.0202593 -0.000660569)
(-0.00308972 0.020773 -0.000596497)
(-0.0042791 0.0199007 -0.000478482)
(-0.00559911 0.0193575 -0.000385714)
(-0.00637121 0.0191559 -0.000305657)
(-0.00698089 0.0193061 -0.000239973)
(-0.00739135 0.0198136 -0.000185975)
(-0.00767253 0.0207539 -0.000144926)
(-0.00785616 0.0222526 -0.00011666)
(-0.00799373 0.0245679 -0.000103945)
(-0.00812112 0.0279665 -7.99815e-05)
(-0.00866847 0.0332207 -1.12896e-05)
(-0.0098831 0.040278 0.000443771)
(-0.0145644 0.0512538 0.00195258)
(-0.0248809 0.0613372 0.00708466)
(-0.0554213 0.0626747 0.0189887)
(-0.0941214 -0.00682142 0.0328926)
(-0.107528 -0.194587 0.0290178)
(-0.0345607 -0.31601 -0.0238214)
(-0.00189319 0.0146947 -0.00106225)
(-0.00422579 0.0256936 -0.00109835)
(-0.00511123 0.0258669 -0.00103264)
(-0.00577188 0.0260127 -0.000945785)
(-0.00590604 0.0244728 -0.000765796)
(-0.0060827 0.0234979 -0.000601384)
(-0.00622402 0.0226336 -0.000442678)
(-0.00628701 0.0222677 -0.000313244)
(-0.00619061 0.0224484 -0.000212366)
(-0.00581318 0.0233276 -0.000140424)
(-0.00512643 0.0251756 -0.000110076)
(-0.00378164 0.0282325 -3.64896e-05)
(-0.00248551 0.033807 4.08924e-05)
(0.000115052 0.0412927 0.000851072)
(-0.000944013 0.0553146 0.00286727)
(-0.00364394 0.0669995 0.0098663)
(-0.0307519 0.064749 0.0229378)
(-0.0603476 -0.0391141 0.0296535)
(-0.0833863 -0.245137 0.0142207)
(-0.0436757 -0.36452 -0.0307391)
(0.00237782 0.0252962 -0.00245277)
(0.000121895 0.0246897 -0.00210471)
(-0.00482896 0.0240098 -0.00135919)
(-0.00586152 0.0208474 -0.000840623)
(-0.00801969 0.0196861 -0.000541596)
(-0.00804243 0.0190652 -0.000311893)
(-0.00804137 0.0189161 -0.000123623)
(-0.00740032 0.0190237 3.26825e-05)
(-0.00642286 0.0194863 0.000140928)
(-0.00492104 0.0202397 0.000220485)
(-0.00288359 0.0218155 0.000218527)
(0.000710029 0.0239226 0.000341583)
(0.00452547 0.0283704 0.000299981)
(0.0128253 0.0339056 0.000984036)
(0.017592 0.045094 0.00307941)
(0.0309004 0.054992 0.00919617)
(0.017739 0.0500878 0.0205406)
(0.00118501 -0.057004 0.0235203)
(-0.0544613 -0.245965 0.010333)
(-0.0273857 -0.398683 -0.0384495)
(-0.00615981 0.0153303 -0.00174112)
(-0.0114392 0.0428348 -0.00187977)
(-0.00621824 0.0378982 -0.00211999)
(-0.00890292 0.0364969 -0.00230112)
(-0.00799465 0.0314497 -0.00174982)
(-0.00755956 0.028367 -0.00117072)
(-0.00665009 0.0253509 -0.000636664)
(-0.00543524 0.0233365 -0.000219676)
(-0.00391855 0.0218892 7.68018e-05)
(-0.00161402 0.0209495 0.000299615)
(0.0010394 0.0205938 0.000255166)
(0.0057985 0.0207031 0.00037062)
(0.0105737 0.0226067 4.08724e-05)
(0.021283 0.0245981 0.000449022)
(0.0281727 0.0325948 0.00100427)
(0.0516357 0.0373968 0.00588031)
(0.0487748 0.0433449 0.011594)
(0.0770268 -0.0386807 0.0143781)
(-0.00216753 -0.218111 0.010102)
(0.00109842 -0.377587 -0.0444954)
(-0.0506324 0.0569564 -0.0112906)
(-0.0286917 0.0234295 -0.00583498)
(-0.0370027 0.0250286 -0.00350631)
(-0.0203671 0.0230879 -0.00207261)
(-0.0127003 0.0191652 -0.00124951)
(-0.000543029 0.0169824 -0.000296507)
(0.00849665 0.01548 0.000404798)
(0.0178782 0.0140209 0.00100041)
(0.0255778 0.0133348 0.00128499)
(0.0337626 0.0121492 0.00161215)
(0.0396947 0.0120932 0.00148255)
(0.0494465 0.0110823 0.00145396)
(0.0529127 0.011751 0.000631287)
(0.0710148 0.0105176 0.000602943)
(0.0692845 0.0107542 -0.00150542)
(0.113083 0.00465709 0.00198229)
(0.0912706 -0.0102335 0.0041135)
(0.161301 -0.0642787 0.00340026)
(0.0757044 -0.206763 0.012464)
(0.0424853 -0.340361 -0.0471162)
(0.0892721 0.103313 -0.00865802)
(0.113172 0.0556903 -0.00837072)
(0.166855 0.0392152 -0.00839035)
(0.2053 0.0265948 -0.00783443)
(0.232205 0.0189917 -0.00699674)
(0.258869 0.0133878 -0.00613854)
(0.275781 0.00977288 -0.00551854)
(0.298386 0.00737318 -0.00453344)
(0.306445 0.00578726 -0.00424547)
(0.329901 0.0046357 -0.00316017)
(0.328509 0.00414474 -0.00280181)
(0.356942 0.00330717 -0.0027236)
(0.345221 0.00360482 -0.00104738)
(0.381232 0.00285723 -0.00297812)
(0.357836 0.00241304 -8.71287e-05)
(0.401354 0.000269588 -0.00344343)
(0.356906 -0.00601424 0.00109277)
(0.387263 -0.0247288 -0.00379761)
(0.255623 -0.0637252 0.00174562)
(0.145237 -0.123145 -0.0626676)
(-0.00019932 0.000204002 -5.30015e-05)
(-0.00100277 0.000381799 -2.1836e-05)
(-0.00213291 0.000418129 -1.23185e-05)
(-0.0032014 0.000423757 -6.31423e-06)
(-0.00427661 0.000423061 -6.63829e-06)
(-0.00532478 0.00041936 -1.12215e-05)
(-0.00633283 0.000410697 -1.97736e-05)
(-0.0072812 0.000393895 -3.25633e-05)
(-0.00814364 0.000365391 -5.02898e-05)
(-0.00888627 0.000321201 -7.37867e-05)
(-0.00946683 0.0002573 -0.000103863)
(-0.00983555 0.000170847 -0.000141076)
(-0.00993609 5.87718e-05 -0.000185892)
(-0.00970785 -8.20844e-05 -0.000237289)
(-0.00909436 -0.000247232 -0.000292986)
(-0.0080553 -0.000427769 -0.000348477)
(-0.00656868 -0.00060677 -0.000396106)
(-0.00472205 -0.000751877 -0.00042257)
(-0.00246741 -0.00079971 -0.000421165)
(-0.000600328 -0.00052572 -0.000299153)
(-0.000391269 0.00104641 -0.000125674)
(-0.00173315 0.00172691 -0.000101911)
(-0.0035222 0.00185574 -9.1079e-05)
(-0.00521229 0.00185356 -7.95778e-05)
(-0.00688859 0.00181582 -7.40781e-05)
(-0.00849571 0.00175591 -7.24764e-05)
(-0.0100091 0.00166895 -7.45163e-05)
(-0.0113978 0.0015462 -8.09043e-05)
(-0.0126234 0.00137729 -9.27572e-05)
(-0.0136394 0.00115068 -0.000111391)
(-0.0143893 0.000854199 -0.000138151)
(-0.01481 0.000475665 -0.000174035)
(-0.0148346 8.0142e-06 -0.000220138)
(-0.0143867 -0.000547533 -0.000275979)
(-0.0133949 -0.00117716 -0.000337715)
(-0.0118117 -0.00184868 -0.000400902)
(-0.00961342 -0.00250307 -0.00045595)
(-0.00691691 -0.00302669 -0.000486648)
(-0.00366417 -0.00318575 -0.000484356)
(-0.000924915 -0.00218407 -0.00033295)
(-0.000438199 0.00226378 -0.000155983)
(-0.00192902 0.0035836 -0.000136104)
(-0.00390584 0.00382247 -0.000124754)
(-0.00576825 0.00379585 -0.000110906)
(-0.00761212 0.00369202 -0.000102887)
(-0.00937739 0.0035377 -9.86058e-05)
(-0.0110394 0.00332598 -9.79778e-05)
(-0.0125669 0.00304305 -0.000101993)
(-0.0139208 0.00267166 -0.000112124)
(-0.0150545 0.00219204 -0.000130091)
(-0.0159121 0.00158313 -0.000157621)
(-0.0164261 0.000824392 -0.000196632)
(-0.0165168 -9.67354e-05 -0.000248737)
(-0.0160968 -0.0011811 -0.000313503)
(-0.0150794 -0.00240575 -0.000388419)
(-0.0133928 -0.00371327 -0.000468178)
(-0.010986 -0.00499419 -0.000541493)
(-0.00796773 -0.00602957 -0.000587897)
(-0.00425965 -0.00635453 -0.000593753)
(-0.0010873 -0.00445184 -0.000418339)
(-0.000448383 0.00345467 -0.000182627)
(-0.00199245 0.00542285 -0.000167299)
(-0.00404609 0.00577192 -0.000156022)
(-0.00598083 0.00572403 -0.000140736)
(-0.00790342 0.00556206 -0.000131147)
(-0.00975349 0.00532605 -0.000125233)
(-0.0115104 0.00500704 -0.000123125)
(-0.0131465 0.00458597 -0.0001261)
(-0.0146262 0.00403808 -0.000136011)
(-0.015905 0.00333382 -0.000155154)
(-0.0169264 0.00244083 -0.000186066)
(-0.0176192 0.00132834 -0.000231501)
(-0.0178979 -2.85807e-05 -0.000294316)
(-0.0176542 -0.00163964 -0.000377653)
(-0.0167643 -0.00348563 -0.000476531)
(-0.0151124 -0.00549175 -0.000586955)
(-0.0125879 -0.00750047 -0.000694662)
(-0.0092651 -0.00917657 -0.000772041)
(-0.00503937 -0.00976349 -0.000796668)
(-0.00131374 -0.00693206 -0.000587398)
(-0.000452095 0.0046922 -0.000206902)
(-0.00203773 0.00734545 -0.000195683)
(-0.00415951 0.00781283 -0.000184702)
(-0.00616109 0.00774828 -0.000168576)
(-0.00816137 0.00753474 -0.00015829)
(-0.010101 0.00722706 -0.000151917)
(-0.0119659 0.00681512 -0.000149849)
(-0.0137341 0.00627513 -0.00015372)
(-0.0153768 0.00557481 -0.000165893)
(-0.0168545 0.00467366 -0.000189421)
(-0.018113 0.00352438 -0.000227991)
(-0.0190781 0.00207684 -0.000285725)
(-0.0196497 0.000285082 -0.000366865)
(-0.0196983 -0.00187687 -0.00047996)
(-0.0190574 -0.00440927 -0.00061824)
(-0.0175385 -0.00723613 -0.00078128)
(-0.0149387 -0.0101573 -0.000952314)
(-0.0112408 -0.012707 -0.00109314)
(-0.00629391 -0.0137307 -0.0011578)
(-0.00170612 -0.00993698 -0.000902974)
(-0.000455685 0.00596089 -0.00023322)
(-0.00208874 0.00933747 -0.000226234)
(-0.00428961 0.00993334 -0.000215651)
(-0.00636863 0.00985911 -0.000198828)
(-0.00845874 0.00960472 -0.000188141)
(-0.0105023 0.00924197 -0.000181787)
(-0.0124935 0.00876092 -0.000180475)
(-0.0144193 0.00813412 -0.000186275)
(-0.0162605 0.00732213 -0.0002022)
(-0.0179875 0.00627265 -0.000232308)
(-0.0195536 0.00492029 -0.000281871)
(-0.0208863 0.00318913 -0.000357507)
(-0.0218763 0.0010001 -0.000467461)
(-0.0223708 -0.00171397 -0.000619202)
(-0.0221497 -0.00499586 -0.000823473)
(-0.0209275 -0.00879668 -0.00107441)
(-0.0183616 -0.0128945 -0.00135744)
(-0.0142463 -0.0166845 -0.00162352)
(-0.00835767 -0.0184614 -0.00177652)
(-0.0024173 -0.0137986 -0.00148511)
(-0.000459492 0.00726607 -0.000264695)
(-0.00214771 0.0114108 -0.000262778)
(-0.00443998 0.0121464 -0.000252543)
(-0.00660599 0.0120694 -0.000234695)
(-0.00879516 0.0117856 -0.000223258)
(-0.0109517 0.0113865 -0.000216637)
(-0.0130805 0.0108646 -0.000215943)
(-0.0151803 0.0101907 -0.0002238)
(-0.0172461 0.00931977 -0.000244062)
(-0.0192646 0.00818787 -0.000282141)
(-0.021205 0.00670945 -0.000345493)
(-0.0230069 0.00477601 -0.000444211)
(-0.0245617 0.0022601 -0.000591671)
(-0.0257046 -0.00097218 -0.000803184)
(-0.0261616 -0.00503087 -0.00110547)
(-0.025526 -0.00995961 -0.00149856)
(-0.0232657 -0.0155728 -0.00197838)
(-0.0188273 -0.0211495 -0.00249071)
(-0.0118895 -0.024218 -0.00285237)
(-0.00379386 -0.0192134 -0.00261075)
(-0.000463064 0.00861436 -0.000303738)
(-0.00221383 0.0135794 -0.000308279)
(-0.00460835 0.0144653 -0.000298107)
(-0.00686684 0.0143899 -0.000278404)
(-0.00915799 0.0140857 -0.000265218)
(-0.0114276 0.0136681 -0.000257285)
(-0.0136934 0.0131351 -0.000256234)
(-0.015969 0.0124595 -0.000265347)
(-0.0182691 0.0115942 -0.000289507)
(-0.0206046 0.0104669 -0.000335849)
(-0.0229733 0.0089735 -0.000414794)
(-0.0253446 0.00697072 -0.000541473)
(-0.027635 0.00427074 -0.000736943)
(-0.0296756 0.000643881 -0.00102925)
(-0.0311704 -0.00413937 -0.00146783)
(-0.0316105 -0.0103086 -0.00208742)
(-0.0302237 -0.0178302 -0.00291085)
(-0.0258859 -0.0259409 -0.00390043)
(-0.0183236 -0.031232 -0.00474875)
(-0.00676438 -0.0276504 -0.00496329)
(-0.000466568 0.0100124 -0.000353188)
(-0.00228804 0.0158568 -0.00036618)
(-0.00479481 0.0169006 -0.000355423)
(-0.00714692 0.0168259 -0.000332381)
(-0.00953561 0.0165051 -0.00031562)
(-0.0119072 0.0160822 -0.00030437)
(-0.0142938 0.0155655 -0.000300887)
(-0.0167268 0.0149351 -0.000309206)
(-0.0192455 0.0141479 -0.000335323)
(-0.0218934 0.0131301 -0.000388289)
(-0.0247109 0.011765 -0.000482058)
(-0.0277214 0.00987791 -0.000638368)
(-0.0309031 0.007217 -0.000890881)
(-0.0341363 0.00343699 -0.00129073)
(-0.0371718 -0.00189595 -0.00190925)
(-0.0394631 -0.00922575 -0.00287442)
(-0.0400159 -0.0189266 -0.00427181)
(-0.0369963 -0.0303869 -0.00615409)
(-0.0306852 -0.0394283 -0.00815168)
(-0.0137419 -0.0419734 -0.0101154)
(-0.000471372 0.0114699 -0.000417157)
(-0.00237537 0.0182598 -0.000441342)
(-0.0050057 0.0194627 -0.000428804)
(-0.00744873 0.0193791 -0.0004)
(-0.00992295 0.0190354 -0.000376668)
(-0.0123729 0.0186111 -0.000358799)
(-0.0148462 0.0181305 -0.000349387)
(-0.0173934 0.0175872 -0.000353251)
(-0.0200823 0.0169521 -0.000377538)
(-0.0229974 0.0161625 -0.000433343)
(-0.026238 0.0151064 -0.000538567)
(-0.029909 0.0135982 -0.000722821)
(-0.0340988 0.0113427 -0.00103531)
(-0.0388289 0.00788386 -0.00155535)
(-0.043952 0.00255904 -0.00240435)
(-0.0491359 -0.00544816 -0.00379497)
(-0.0534752 -0.0171377 -0.0061059)
(-0.0544608 -0.0324822 -0.0095131)
(-0.0534024 -0.047692 -0.0135657)
(-0.0285372 -0.0685959 -0.0192592)
(-0.000480438 0.0130024 -0.000502121)
(-0.00248681 0.0208055 -0.000540505)
(-0.00525712 0.0221528 -0.000523483)
(-0.00778619 0.0220343 -0.000484784)
(-0.0103274 0.0216485 -0.000450527)
(-0.0128188 0.0212149 -0.000421442)
(-0.0153242 0.020777 -0.000400976)
(-0.0179126 0.0203495 -0.000394649)
(-0.0206787 0.0199267 -0.000410334)
(-0.0237487 0.0194728 -0.000460319)
(-0.0272862 0.0189034 -0.000565107)
(-0.031499 0.0180545 -0.000760124)
(-0.0366402 0.0166306 -0.00110807)
(-0.0429814 0.0141256 -0.00172093)
(-0.0507526 0.00974017 -0.00278739)
(-0.0602202 0.00230779 -0.00462545)
(-0.0709726 -0.0098143 -0.00787053)
(-0.0792945 -0.0284281 -0.0126431)
(-0.0861215 -0.0553376 -0.0164348)
(-0.0444378 -0.124396 -0.0223785)
(-0.000504295 0.0146559 -0.000621241)
(-0.00265503 0.0236058 -0.000682711)
(-0.00558945 0.0250886 -0.00065918)
(-0.00819147 0.0249244 -0.000606046)
(-0.0107683 0.0244375 -0.000551432)
(-0.0132514 0.0239323 -0.000500631)
(-0.0157182 0.0234886 -0.000459502)
(-0.0182512 0.02316 -0.000434151)
(-0.0209675 0.0229796 -0.000432649)
(-0.0240313 0.022959 -0.000467597)
(-0.0276704 0.0230762 -0.000560584)
(-0.0322029 0.0232473 -0.000750221)
(-0.0380701 0.0232679 -0.00110641)
(-0.0458546 0.0227172 -0.00175216)
(-0.0563113 0.020871 -0.00287729)
(-0.0705759 0.0164786 -0.00469821)
(-0.0883716 0.00638223 -0.00720755)
(-0.101055 -0.019444 -0.00747734)
(-0.110063 -0.0764235 0.00238712)
(-0.0339417 -0.217212 0.000646947)
(-0.000504662 0.0163741 -0.00078322)
(-0.00282663 0.0262749 -0.000845791)
(-0.00599014 0.0277569 -0.000802083)
(-0.00869504 0.0273376 -0.000715878)
(-0.0113452 0.0267363 -0.00063704)
(-0.0137739 0.0262172 -0.000564196)
(-0.016102 0.0258518 -0.000501474)
(-0.0184265 0.0256858 -0.000452289)
(-0.0208825 0.0257789 -0.000422918)
(-0.0236508 0.0262015 -0.000423184)
(-0.0269891 0.0270272 -0.000468751)
(-0.0312878 0.028309 -0.000586481)
(-0.0371529 0.0300453 -0.000822745)
(-0.045464 0.0320856 -0.00122846)
(-0.0574548 0.0340369 -0.00173623)
(-0.074848 0.0340715 -0.00156684)
(-0.0972358 0.0249676 0.00214015)
(-0.107129 -0.0168819 0.0170462)
(-0.113705 -0.113441 0.047171)
(-0.00722301 -0.291143 0.0194555)
(-0.000796631 0.0185575 -0.00106423)
(-0.00356551 0.0304938 -0.00120135)
(-0.0068672 0.032026 -0.00113709)
(-0.00951766 0.0317419 -0.00103022)
(-0.0119265 0.0307214 -0.000893214)
(-0.0141485 0.0298018 -0.000758871)
(-0.0162571 0.0290568 -0.000631974)
(-0.0183286 0.0286605 -0.000524159)
(-0.0204545 0.0287463 -0.000441603)
(-0.0227852 0.029469 -0.000392009)
(-0.0255646 0.031022 -0.000386007)
(-0.0291864 0.0336583 -0.000430566)
(-0.0343071 0.0376964 -0.000514711)
(-0.0418458 0.0433093 -0.000460969)
(-0.0532149 0.0503248 0.000509063)
(-0.0696489 0.0542999 0.00542565)
(-0.0918082 0.0435096 0.0206613)
(-0.0985554 -0.0176524 0.0516576)
(-0.106473 -0.15464 0.0750476)
(0.00302097 -0.339981 -0.00191704)
(-0.000172098 0.0212989 -0.00146427)
(-0.00298545 0.0322936 -0.00149807)
(-0.00722499 0.0332725 -0.00135588)
(-0.0102315 0.0316664 -0.00111725)
(-0.0132768 0.030562 -0.000918543)
(-0.0154056 0.0297499 -0.000734806)
(-0.0172135 0.0293179 -0.000573452)
(-0.018708 0.0292578 -0.000428624)
(-0.0200445 0.0296895 -0.00030228)
(-0.0213426 0.0307818 -0.000191777)
(-0.0227602 0.0328367 -9.46182e-05)
(-0.0245471 0.0362384 4.13911e-05)
(-0.0273015 0.041675 0.000312327)
(-0.0316581 0.0493225 0.001339)
(-0.0397279 0.0596735 0.00470118)
(-0.0508639 0.0654258 0.0154794)
(-0.0715182 0.0538171 0.040347)
(-0.0771358 -0.0253417 0.0706033)
(-0.0862816 -0.201469 0.0605009)
(0.00696295 -0.394346 -0.0202777)
(-0.00329125 0.0215464 -0.00201503)
(-0.00784502 0.0405227 -0.00215106)
(-0.0102691 0.0415102 -0.0020734)
(-0.0125923 0.0413567 -0.00190496)
(-0.013967 0.0386069 -0.0015786)
(-0.0154903 0.0365351 -0.00125972)
(-0.0168078 0.0346184 -0.000940969)
(-0.0179809 0.0333825 -0.00066258)
(-0.0189229 0.032879 -0.000423218)
(-0.0195946 0.0333427 -0.000221974)
(-0.0200037 0.035087 -6.11283e-05)
(-0.0200794 0.0386951 0.000192125)
(-0.0204088 0.0452978 0.000599533)
(-0.0203324 0.0546874 0.00239477)
(-0.0231095 0.0697565 0.00704595)
(-0.0230976 0.0769947 0.0207798)
(-0.0360877 0.0665147 0.0456474)
(-0.0278816 -0.0271426 0.0628226)
(-0.0539415 -0.223103 0.0331149)
(0.0210393 -0.426938 -0.0244359)
(0.00267675 0.0359704 -0.00433837)
(-0.00228897 0.0381556 -0.0040358)
(-0.0119466 0.0373554 -0.00280971)
(-0.0142484 0.0326777 -0.0019424)
(-0.0181336 0.0312842 -0.00141369)
(-0.0190268 0.0302884 -0.000972822)
(-0.0199791 0.0297961 -0.000588359)
(-0.0201018 0.0294984 -0.000236412)
(-0.0197912 0.0296186 5.33672e-05)
(-0.018883 0.0301859 0.000314317)
(-0.0172013 0.031749 0.000475641)
(-0.0141182 0.0344761 0.00083196)
(-0.0105903 0.03997 0.00114036)
(-0.00227807 0.0472912 0.00291344)
(0.0029107 0.0593885 0.00713716)
(0.0201443 0.06595 0.0189108)
(0.0194781 0.0547736 0.0381326)
(0.0336243 -0.0309522 0.0481095)
(-0.0212787 -0.219866 0.0155026)
(0.0429534 -0.428782 -0.0371864)
(-0.00274524 0.0170754 -0.00339658)
(-0.00660487 0.0604188 -0.00375817)
(-0.00215687 0.057017 -0.00410243)
(-0.011101 0.0551658 -0.00426551)
(-0.0140709 0.0484843 -0.00337092)
(-0.017453 0.0442436 -0.00242376)
(-0.0190314 0.0399991 -0.00150636)
(-0.0195258 0.0370455 -0.000751114)
(-0.0189668 0.0346468 -0.00015911)
(-0.0172053 0.0330964 0.000312937)
(-0.0144852 0.0321394 0.000446057)
(-0.00959098 0.032349 0.000827246)
(-0.00421909 0.0348208 0.000632958)
(0.00708707 0.0390375 0.0020265)
(0.0167892 0.0490502 0.00368261)
(0.0416061 0.0556633 0.0129096)
(0.0463966 0.0566339 0.0196029)
(0.0925836 0.00520836 0.0259408)
(0.0384358 -0.187321 0.0132172)
(0.082477 -0.411601 -0.0385791)
(-0.0766506 0.0566193 -0.0151417)
(-0.0560765 0.0334509 -0.00796586)
(-0.0752535 0.0401316 -0.00522112)
(-0.0545451 0.0378614 -0.00358814)
(-0.0489272 0.0330823 -0.00244246)
(-0.034067 0.0304956 -0.00102085)
(-0.0226475 0.0281505 -1.26482e-05)
(-0.0103858 0.0257824 0.000948388)
(0.00138552 0.0243982 0.0015124)
(0.0128706 0.022411 0.00216047)
(0.0237099 0.0216129 0.00214559)
(0.0361074 0.0202811 0.00220901)
(0.0449285 0.0200529 0.00122316)
(0.0639363 0.020473 0.0016028)
(0.0697441 0.0188266 -0.00195356)
(0.110913 0.0210036 0.00509908)
(0.109917 -0.00582195 0.00822717)
(0.175998 -0.040549 0.000212535)
(0.133705 -0.197896 0.016823)
(0.140717 -0.370896 -0.0410566)
(0.084332 0.122519 -0.0117544)
(0.113213 0.0738239 -0.0116078)
(0.166465 0.0562327 -0.0116717)
(0.211802 0.0425359 -0.011021)
(0.241665 0.033837 -0.0102074)
(0.275688 0.0274048 -0.00912171)
(0.295377 0.0226237 -0.00840591)
(0.326615 0.0193442 -0.00746247)
(0.337543 0.0165619 -0.0065419)
(0.369089 0.0150861 -0.00605247)
(0.373176 0.0126186 -0.00439161)
(0.405434 0.0127758 -0.0055483)
(0.404252 0.0101526 -0.00201449)
(0.438637 0.0110007 -0.00568431)
(0.429754 0.00854064 -0.000366096)
(0.468161 0.00679805 -0.00692471)
(0.443407 0.000844139 0.00186057)
(0.467257 -0.0162222 -0.00922011)
(0.369068 -0.0556224 0.00188298)
(0.261153 -0.11956 -0.0612281)
(-0.000211622 0.00020868 -6.69414e-05)
(-0.00107602 0.00040416 -6.32329e-05)
(-0.00229354 0.000443961 -5.84534e-05)
(-0.00343887 0.000448933 -5.41082e-05)
(-0.00458715 0.000446424 -5.43915e-05)
(-0.00570123 0.000440342 -5.87463e-05)
(-0.00676746 0.000428536 -6.71964e-05)
(-0.00776551 0.000407825 -8.054e-05)
(-0.0086679 0.000374564 -9.97079e-05)
(-0.00943957 0.000324674 -0.000125747)
(-0.0100371 0.00025402 -0.000159686)
(-0.0104091 0.000159695 -0.000202306)