/*--------------------------------*- C++ -*----------------------------------*\
  =========                 |
  \\      /  F ield         | OpenFOAM: The Open Source CFD Toolbox
   \\    /   O peration     | Website:  https://openfoam.org
    \\  /    A nd           | Version:  9
     \\/     M anipulation  |
\*---------------------------------------------------------------------------*/
FoamFile
{
    format      ascii;
    class       volScalarField;
    location    "2";
    object      p;
}
// * * * * * * * * * * * * * * * * * * * * * * * * * * * * * * * * * * * * * //

dimensions      [0 2 -2 0 0 0 0];

internalField   nonuniform List<scalar> 
400
(
8.90085e-10
1.42499e-05
7.0238e-05
0.000158805
0.000279386
0.00042958
0.000606313
0.000805845
0.00102378
0.00125508
0.00149413
0.00173483
0.00197063
0.00219476
0.00240039
0.00258088
0.00273006
0.00284249
0.00291529
0.00293696
-1.49756e-05
-9.22441e-07
5.54123e-05
0.000144408
0.000265664
0.000416826
0.000594856
0.000796042
0.001016
0.00124969
0.00149145
0.00173521
0.0019743
0.00220184
0.00241085
0.00259453
0.00274652
0.00286118
0.0029356
0.00295762
-7.24903e-05
-5.84303e-05
-4.74379e-07
9.11794e-05
0.000216217
0.000372281
0.000556322
0.000764598
0.000992669
0.00123542
0.00148715
0.00174147
0.0019915
0.00223005
0.00244978
0.0026434
0.00280403
0.00292548
0.0030045
0.00302782
-0.000167209
-0.000152851
-9.21761e-05
3.91855e-06
0.000135231
0.000299395
0.000493333
0.000713249
0.000954609
0.00121216
0.00147997
0.00175148
0.00201936
0.00227593
0.00251322
0.00272318
0.00289806
0.00303079
0.00311743
0.00314324
-0.000301497
-0.000286675
-0.000222179
-0.000119838
2.02941e-05
0.000195838
0.000403676
0.000639931
0.000899948
0.0011783
0.00146878
0.00176454
0.00205772
0.00233996
0.00260242
0.00283599
0.00303164
0.0031809
0.00327882
0.00330843
-0.000478256
-0.000462882
-0.000393477
-0.000283095
-0.00013158
5.86751e-05
0.000284503
0.000541934
0.000826171
0.00113158
0.00145167
0.00177926
0.00210585
0.00242228
0.00271859
0.00298424
0.00320843
0.0033807
0.00349446
0.00352961
-0.000701172
-0.000685252
-0.000609889
-0.000489694
-0.000324227
-0.000115885
0.000132115
0.000415703
0.000729928
0.00106894
0.00142598
0.00179352
0.00216246
0.00252267
0.0028629
0.00317076
0.00343313
0.00363664
0.00377225
0.00381533
-0.00097486
-0.000958538
-0.000876231
-0.0007445
-0.00056251
-0.000332648
-5.81848e-05
0.000256695
0.000606891
0.00098637
0.00138808
0.0018043
0.00222535
0.00264024
0.00303619
0.00339866
0.00371142
0.00395711
0.00412279
0.00417737
-0.00130492
-0.00128854
-0.00119842
-0.0010535
-0.000852421
-0.000597537
-0.000292194
5.92809e-05
0.000451631
0.000878693
0.00133327
0.00180731
0.00229106
0.00277287
0.0032385
0.00367085
0.00404986
0.00435265
0.00456004
0.00463182
-0.00169804
-0.00168227
-0.00158365
-0.001424
-0.00120125
-0.000917733
-0.000576915
-0.000183355
0.000257488
0.000739389
0.00125539
0.00179652
0.00235424
0.0029165
0.00346804
0.0039892
0.00445527
0.00483614
0.00510234
0.0052011
-0.00216212
-0.00214808
-0.00204063
-0.00186487
-0.00161784
-0.00130184
-0.000920654
-0.000479251
1.65489e-05
0.000560371
0.00114533
0.00176367
0.00240701
0.00306413
0.00371988
0.004353
0.00493357
0.00542273
0.00577346
0.00591725
-0.00270662
-0.00269611
-0.00258008
-0.00238698
-0.0021129
-0.00176013
-0.00133311
-0.000837622
-0.000280136
0.000332695
0.000994326
0.00169849
0.00243828
0.00320456
0.00398409
0.00475617
0.00548706
0.00612894
0.00660364
0.00682796
-0.00334196
-0.0033383
-0.00321529
-0.00300388
-0.00269961
-0.00230482
-0.00182538
-0.00126858
-0.000642195
4.65606e-05
0.000791578
0.00158821
0.00243301
0.00332072
0.00424294
0.00518348
0.00610838
0.00696956
0.00762959
0.00800564
-0.00408816
-0.00409334
-0.00396496
-0.00373335
-0.00339464
-0.00295046
-0.00240966
-0.00178244
-0.00107904
-0.00030785
0.00052531
0.00141782
0.00237194
0.00338798
0.00446665
0.00560337
0.00676931
0.0079473
0.00887745
0.00957694
-0.00490431
-0.00496584
-0.00484578
-0.00459731
-0.00421914
-0.00371409
-0.00309871
-0.0023886
-0.00159817
-0.000738084
0.000185418
0.0011697
0.00223205
0.00337264
0.00460695
0.00595499
0.00740071
0.00904517
0.0103654
0.011744
-0.00607051
-0.00604131
-0.00591969
-0.00563696
-0.00520328
-0.00461619
-0.00390544
-0.0030945
-0.00220368
-0.00124642
-0.000228403
0.00085326
0.00201218
0.00326582
0.00465387
0.00624023
0.00800435
0.0102865
0.0120916
0.0147872
-0.00688241
-0.00731361
-0.0071827
-0.00690644
-0.0063971
-0.00568815
-0.00484525
-0.00390525
-0.00289589
-0.00183552
-0.000735992
0.000398582
0.00156414
0.00282392
0.00417295
0.00584581
0.00744525
0.0107996
0.0127536
0.0187636
-0.00929627
-0.00825518
-0.00859754
-0.00812081
-0.00757889
-0.00678734
-0.00583727
-0.00477064
-0.00363311
-0.00245452
-0.00124677
1.0508e-06
0.00130425
0.00273859
0.00424671
0.00613679
0.00804299
0.0121724
0.0149606
0.0242305
-0.00953068
-0.0123064
-0.0114888
-0.0112149
-0.0101594
-0.00880344
-0.00737985
-0.00595727
-0.00456798
-0.00322165
-0.00192866
-0.000689087
0.000430341
0.0016269
0.00192858
0.0041769
0.00242052
0.0091215
0.00635105
0.0276316
-0.0211243
-0.0106831
-0.0113706
-0.0109818
-0.00998791
-0.0088212
-0.00755408
-0.00619714
-0.0048172
-0.00345621
-0.00214309
-0.000846051
0.000331483
0.00164914
0.00258913
0.00469283
0.00642958
0.0148747
0.0280093
0.0648204
)
;

boundaryField
{
    movingWall
    {
        type            zeroGradient;
    }
    fixedWalls
    {
        type            zeroGradient;
    }
    frontAndBack
    {
        type            empty;
    }
}


// ************************************************************************* //
