/*--------------------------------*- C++ -*----------------------------------*\
  =========                 |
  \\      /  F ield         | OpenFOAM: The Open Source CFD Toolbox
   \\    /   O peration     | Website:  https://openfoam.org
    \\  /    A nd           | Version:  9
     \\/     M anipulation  |
\*---------------------------------------------------------------------------*/
FoamFile
{
    format      ascii;
    class       surfaceScalarField;
    location    "2";
    object      phi;
}
// * * * * * * * * * * * * * * * * * * * * * * * * * * * * * * * * * * * * * //

dimensions      [0 3 -1 0 0 0 0];

internalField   nonuniform List<scalar> 
760
(
-6.10555e-06
6.10554e-06
-1.34011e-05
7.29557e-06
-2.04518e-05
7.05065e-06
-2.7007e-05
6.55529e-06
-3.29064e-05
5.89935e-06
-3.80091e-05
5.10265e-06
-4.21925e-05
4.18341e-06
-4.53535e-05
3.161e-06
-4.74091e-05
2.05564e-06
-4.82975e-05
8.88398e-07
-4.79791e-05
-3.18422e-07
-4.64381e-05
-1.54096e-06
-4.36865e-05
-2.75159e-06
-3.9766e-05
-3.92057e-06
-3.47512e-05
-5.01476e-06
-2.87528e-05
-5.99837e-06
-2.19186e-05
-6.83426e-06
-1.44364e-05
-7.48218e-06
-6.60958e-06
-7.82681e-06
-6.60959e-06
-7.58525e-06
1.36908e-05
-1.65089e-05
1.62192e-05
-2.51248e-05
1.56666e-05
-3.31279e-05
1.45584e-05
-4.03209e-05
1.30923e-05
-4.65324e-05
1.13142e-05
-5.16152e-05
9.26618e-06
-5.54465e-05
6.9923e-06
-5.79285e-05
4.53769e-06
-5.89889e-05
1.94872e-06
-5.85846e-05
-7.22671e-07
-5.66945e-05
-3.43106e-06
-5.33353e-05
-6.11075e-06
-4.85572e-05
-8.69867e-06
-4.24496e-05
-1.11224e-05
-3.5145e-05
-1.3303e-05
-2.68216e-05
-1.51577e-05
-1.77077e-05
-1.65961e-05
-8.16984e-06
-1.73647e-05
-1.47794e-05
-8.00971e-06
2.17005e-05
-1.74328e-05
2.56423e-05
-2.65236e-05
2.47574e-05
-3.49625e-05
2.29973e-05
-4.25436e-05
2.06734e-05
-4.90896e-05
1.78602e-05
-5.44493e-05
1.46258e-05
-5.84972e-05
1.10403e-05
-6.1134e-05
7.17441e-06
-6.22861e-05
3.1008e-06
-6.18991e-05
-1.10959e-06
-5.99541e-05
-5.37607e-06
-5.6461e-05
-9.60384e-06
-5.14633e-05
-1.36964e-05
-4.50459e-05
-1.75398e-05
-3.73402e-05
-2.10086e-05
-2.8529e-05
-2.39689e-05
-1.88526e-05
-2.62725e-05
-8.70249e-06
-2.75148e-05
-2.34819e-05
-8.5455e-06
3.0246e-05
-1.86014e-05
3.56982e-05
-2.8295e-05
3.44509e-05
-3.72861e-05
3.19885e-05
-4.53586e-05
2.87458e-05
-5.2329e-05
2.48306e-05
-5.80428e-05
2.03397e-05
-6.23733e-05
1.53708e-05
-6.52192e-05
1.00203e-05
-6.65032e-05
4.38476e-06
-6.61694e-05
-1.44338e-06
-6.41843e-05
-7.36117e-06
-6.05492e-05
-1.32389e-05
-5.52957e-05
-1.89499e-05
-4.84977e-05
-2.43378e-05
-4.02807e-05
-2.92256e-05
-3.083e-05
-3.34196e-05
-2.04016e-05
-3.6701e-05
-9.42562e-06
-3.84907e-05
-3.29075e-05
-9.2913e-06
3.95373e-05
-2.02239e-05
4.66309e-05
-3.07496e-05
4.49766e-05
-4.04991e-05
4.17381e-05
-4.92424e-05
3.74891e-05
-5.67891e-05
3.23772e-05
-6.29827e-05
2.65333e-05
-6.76965e-05
2.00846e-05
-7.08291e-05
1.31529e-05
-7.23007e-05
5.85642e-06
-7.20497e-05
-1.69446e-06
-7.00268e-05
-9.38404e-06
-6.62178e-05
-1.70479e-05
-6.06345e-05
-2.45332e-05
-5.33314e-05
-3.16409e-05
-4.44204e-05
-3.81366e-05
-3.40858e-05
-4.37542e-05
-2.2603e-05
-4.81838e-05
-1.04578e-05
-5.06359e-05
-4.33653e-05
-1.02755e-05
4.98128e-05
-2.23606e-05
5.87159e-05
-3.39731e-05
5.65891e-05
-4.47054e-05
5.24704e-05
-5.43103e-05
4.7094e-05
-6.25914e-05
4.06584e-05
-6.93933e-05
3.33352e-05
-7.45936e-05
2.52848e-05
-7.80945e-05
1.66538e-05
-7.98158e-05
7.5777e-06
-7.96899e-05
-1.82033e-06
-7.76466e-05
-1.14273e-05
-7.36482e-05
-2.10463e-05
-6.76761e-05
-3.05054e-05
-5.97515e-05
-3.95655e-05
-4.99591e-05
-4.7929e-05
-3.84729e-05
-5.52404e-05
-2.55877e-05
-6.1069e-05
-1.18645e-05
-6.43591e-05
-5.52298e-05
-1.15333e-05
6.13461e-05
-2.50839e-05
7.22665e-05
-3.80664e-05
6.95716e-05
-5.00229e-05
6.44269e-05
-6.06877e-05
5.77588e-05
-6.9862e-05
4.98326e-05
-7.73981e-05
4.08712e-05
-8.31856e-05
3.10724e-05
-8.71377e-05
2.06059e-05
-8.91784e-05
9.61843e-06
-8.92367e-05
-1.76205e-06
-8.72149e-05
-1.34491e-05
-8.30417e-05
-2.52195e-05
-7.66524e-05
-3.68947e-05
-6.80136e-05
-4.82043e-05
-5.71593e-05
-5.87832e-05
-4.42327e-05
-6.81671e-05
-2.95403e-05
-7.57614e-05
-1.3741e-05
-8.01584e-05
-6.89708e-05
-1.31151e-05
7.44612e-05
-2.84962e-05
8.76476e-05
-4.31683e-05
8.42437e-05
-5.661e-05
7.78687e-05
-6.85378e-05
6.96866e-05
-7.87585e-05
6.00533e-05
-8.71445e-05
4.92572e-05
-9.36112e-05
3.75391e-05
-9.80945e-05
2.50891e-05
-0.000100532
1.20555e-05
-0.000100854
-1.43994e-06
-9.89301e-05
-1.53726e-05
-9.46432e-05
-2.95065e-05
-8.78591e-05
-4.36788e-05
-7.8459e-05
-5.76044e-05
-6.63865e-05
-7.08557e-05
-5.17151e-05
-8.28385e-05
-3.47381e-05
-9.27384e-05
-1.62357e-05
-9.86608e-05
-8.52065e-05
-1.50951e-05
8.95563e-05
-3.27437e-05
0.000105296
-4.94722e-05
0.000100972
-6.46804e-05
9.30768e-05
-7.8072e-05
8.30783e-05
-8.94756e-05
7.14569e-05
-9.88047e-05
5.85863e-05
-0.000106022
4.47564e-05
-0.000111105
3.01724e-05
-0.000114019
1.49697e-05
-0.000114709
-7.50384e-07
-0.000113007
-1.70744e-05
-0.000108737
-3.37765e-05
-0.000101664
-5.07519e-05
-9.1538e-05
-6.77305e-05
-7.81499e-05
-8.42438e-05
-6.14323e-05
-9.9556e-05
-4.16041e-05
-0.000112567
-1.95875e-05
-0.000120677
-0.000104794
-1.7585e-05
0.000107141
-3.80384e-05
0.00012575
-5.72509e-05
0.000120185
-7.45237e-05
0.00011035
-8.95646e-05
9.81192e-05
-0.000102252
8.41442e-05
-0.000112574
6.89085e-05
-0.000120574
5.27566e-05
-0.000126301
3.5899e-05
-0.000129767
1.84357e-05
-0.000130956
4.38547e-07
-0.000129657
-1.83729e-05
-0.000125634
-3.78003e-05
-0.00011851
-5.78757e-05
-0.000107836
-7.84046e-05
-9.31573e-05
-9.89223e-05
-7.4143e-05
-0.00011857
-5.0799e-05
-0.000135911
-2.41979e-05
-0.000147278
-0.000128992
-2.07596e-05
0.000127901
-4.46953e-05
0.000149685
-6.68952e-05
0.000142385
-8.65379e-05
0.000129992
-0.000103373
0.000114955
-0.000117378
9.81486e-05
-0.000128668
8.01984e-05
-0.000137416
6.15045e-05
-0.000143784
4.22669e-05
-0.000147873
2.25252e-05
-0.000149678
2.24331e-06
-0.000149051
-1.89992e-05
-0.000145638
-4.12137e-05
-0.000138899
-6.46152e-05
-0.000128099
-8.9204e-05
-0.000112393
-0.000114629
-9.09883e-05
-0.000139975
-6.33852e-05
-0.000163514
-3.07834e-05
-0.00017988
-0.000159775
-2.49039e-05
0.000152805
-5.31939e-05
0.000177975
-7.89765e-05
0.000168167
-0.000101276
0.000152292
-0.000119969
0.000133648
-0.000135208
0.000113388
-0.000147316
9.23066e-05
-0.000156663
7.08514e-05
-0.000163582
4.91866e-05
-0.000168305
2.72473e-05
-0.000170903
4.84156e-06
-0.000171276
-1.86258e-05
-0.000168999
-4.34908e-05
-0.00016335
-7.02643e-05
-0.000153236
-9.93179e-05
-0.000137216
-0.000130649
-0.000113709
-0.000163481
-8.11237e-05
-0.000196099
-4.07224e-05
-0.000220281
-0.000200498
-3.04829e-05
0.000183288
-6.42657e-05
0.000211758
-9.43392e-05
0.000198241
-0.000119513
0.000177465
-0.000139974
0.000154108
-0.000156172
0.000129586
-0.00016875
0.000104885
-0.000178374
8.04752e-05
-0.000185625
5.64373e-05
-0.000190918
3.25401e-05
-0.000194458
8.38195e-06
-0.000196234
-1.68497e-05
-0.000195812
-4.39131e-05
-0.000192314
-7.37618e-05
-0.000184258
-0.000107374
-0.000169429
-0.000145478
-0.000144983
-0.000187928
-0.000107027
-0.000234055
-5.70959e-05
-0.000270212
-0.000257594
-3.8534e-05
0.000221822
-7.92255e-05
0.00025245
-0.00011431
0.000233325
-0.000142359
0.000205515
-0.000164215
0.000175964
-0.000180777
0.000146148
-0.000193184
0.000117293
-0.000202516
8.9807e-05
-0.00020968
6.36013e-05
-0.000215352
3.82124e-05
-0.00021991
1.29398e-05
-0.000223519
-1.3241e-05
-0.000225853
-4.15787e-05
-0.00022599
-7.36254e-05
-0.000222133
-0.000111231
-0.000211206
-0.000156405
-0.000188789
-0.000210345
-0.000146119
-0.000276725
-8.52326e-05
-0.000331099
-0.000342826
-4.8696e-05
0.000270518
-9.89725e-05
0.000302726
-0.000140475
0.000274827
-0.000171282
0.000236322
-0.000193734
0.000198416
-0.000209588
0.000162002
-0.000220771
0.000128476
-0.000228911
9.79464e-05
-0.000235305
6.99959e-05
-0.000240938
4.38451e-05
-0.000246443
1.84451e-05
-0.000252248
-7.43616e-06
-0.000258324
-3.55026e-05
-0.000263975
-6.79749e-05
-0.000267465
-0.000107741
-0.000264852
-0.000159018
-0.000251136
-0.000224061
-0.000206608
-0.000321253
-0.000136875
-0.000400832
-0.000479702
-7.55915e-05
0.000346109
-0.000131519
0.000358654
-0.000177456
0.000320764
-0.000208808
0.000267674
-0.000229909
0.000219517
-0.000243195
0.000175287
-0.00025152
0.000136801
-0.00025714
0.000103566
-0.000261772
7.46281e-05
-0.000266728
4.88008e-05
-0.000273031
2.47484e-05
-0.000280848
3.80692e-07
-0.000291664
-2.46861e-05
-0.000305031
-5.46078e-05
-0.000320305
-9.24671e-05
-0.000332372
-0.000146951
-0.000338511
-0.000217922
-0.000303924
-0.000355839
-0.000234101
-0.000470656
-0.000713802
-7.88327e-05
0.000424942
-0.000162354
0.000442176
-0.000221878
0.000380288
-0.000256019
0.000301815
-0.000273863
0.000237361
-0.000281811
0.000183235
-0.000284825
0.000139814
-0.00028602
0.000104761
-0.000287411
7.60193e-05
-0.000290347
5.17374e-05
-0.000295908
3.03092e-05
-0.000305853
1.03251e-05
-0.00032051
-1.00283e-05
-0.000340628
-3.449e-05
-0.000370658
-6.24375e-05
-0.000401672
-0.000115937
-0.00045052
-0.000169074
-0.000445647
-0.000360712
-0.000397435
-0.000518868
-0.00111124
-0.000199917
0.000624859
-0.000257307
0.000499565
-0.000297973
0.000420954
-0.000318616
0.000322458
-0.000321414
0.000240159
-0.000316893
0.000178715
-0.000309747
0.000132668
-0.000302833
9.78471e-05
-0.000298174
7.13601e-05
-0.000297266
5.08299e-05
-0.0003015
3.45427e-05
-0.000312092
2.09178e-05
-0.000331661
9.54049e-06
-0.000362319
-3.83256e-06
-0.000412025
-1.27311e-05
-0.000473243
-5.4719e-05
-0.000551164
-9.11529e-05
-0.000575486
-0.000336389
-0.000466931
-0.000627423
-0.00157817
-0.000446864
0.00107172
-0.00042912
0.000481821
-0.000380149
0.000371983
-0.000311471
0.00025378
-0.000242436
0.000171123
-0.000182881
0.000119161
-0.000135677
8.54644e-05
-0.000100027
6.21963e-05
-7.41943e-05
4.55277e-05
-5.65982e-05
3.32339e-05
-4.61003e-05
2.40448e-05
-4.14486e-05
1.62661e-05
-4.25508e-05
1.06427e-05
-4.90562e-05
2.67284e-06
-5.34509e-05
-8.33644e-06
-7.34631e-05
-3.47068e-05
-5.71594e-05
-0.000107457
-0.00010104
-0.000292509
-2.59722e-05
-0.000702491
-0.00160414
0.00107172
0.00155354
0.00192553
0.00217931
0.00235043
0.00246959
0.00255506
0.00261725
0.00266278
0.00269601
0.00272006
0.00273632
0.00274697
0.00274964
0.0027413
0.0027066
0.00259914
0.00230663
0.00160414
)
;

boundaryField
{
    movingWall
    {
        type            calculated;
        value           uniform 0;
    }
    fixedWalls
    {
        type            calculated;
        value           uniform 0;
    }
    frontAndBack
    {
        type            empty;
        value           nonuniform List<scalar> 0();
    }
}


// ************************************************************************* //
