/*--------------------------------*- C++ -*----------------------------------*\
  =========                 |
  \\      /  F ield         | OpenFOAM: The Open Source CFD Toolbox
   \\    /   O peration     | Website:  https://openfoam.org
    \\  /    A nd           | Version:  9
     \\/     M anipulation  |
\*---------------------------------------------------------------------------*/
FoamFile
{
    format      ascii;
    class       volVectorField;
    location    "2";
    object      U;
}
// * * * * * * * * * * * * * * * * * * * * * * * * * * * * * * * * * * * * * //

dimensions      [0 1 -1 0 0 0 0];

internalField   nonuniform List<vector> 
400
(
(-0.00028668 0.000282728 0)
(-0.000960803 0.000339853 0)
(-0.00170047 0.000328605 0)
(-0.00238151 0.000305687 0)
(-0.00300632 0.000275315 0)
(-0.00355823 0.000238373 0)
(-0.00402402 0.000195678 0)
(-0.00439241 0.000148111 0)
(-0.00465412 9.66056e-05 0)
(-0.00480189 4.21512e-05 0)
(-0.00483064 -1.41759e-05 0)
(-0.0047376 -7.13451e-05 0)
(-0.00452253 -0.000127985 0)
(-0.00418808 -0.000182684 0)
(-0.00374003 -0.000233879 0)
(-0.0031876 -0.000279886 0)
(-0.00254371 -0.00031897 0)
(-0.00182695 -0.000349264 0)
(-0.00103832 -0.000365353 0)
(-0.000311742 -0.000306962 0)
(-0.000358102 0.00096491 0)
(-0.00118863 0.00114794 0)
(-0.00209174 0.00110919 0)
(-0.00292394 0.00103109 0)
(-0.00368645 0.000927681 0)
(-0.004359 0.000802134 0)
(-0.0049256 0.000657358 0)
(-0.00537278 0.00049643 0)
(-0.00568953 0.000322549 0)
(-0.00586733 0.000139017 0)
(-0.00590044 -5.07713e-05 0)
(-0.0057856 -0.000242815 0)
(-0.00552256 -0.000432941 0)
(-0.00511462 -0.000616512 0)
(-0.00456869 -0.000788345 0)
(-0.00389581 -0.00094283 0)
(-0.00311151 -0.00107413 0)
(-0.00223814 -0.0011759 0)
(-0.00127847 -0.00123013 0)
(-0.000387172 -0.00104304 0)
(-0.000378071 0.00176353 0)
(-0.00125522 0.00208563 0)
(-0.00220869 0.00201416 0)
(-0.00308645 0.00187144 0)
(-0.00389028 0.00168275 0)
(-0.00459903 0.00145407 0)
(-0.00519623 0.00119084 0)
(-0.0056681 0.000898759 0)
(-0.00600342 0.000583617 0)
(-0.00619359 0.00025134 0)
(-0.0062322 -9.19483e-05 0)
(-0.00611553 -0.000439435 0)
(-0.00584313 -0.000783693 0)
(-0.00541759 -0.00111646 0)
(-0.00484523 -0.00142844 0)
(-0.00413678 -0.00170947 0)
(-0.0033079 -0.00194882 0)
(-0.00238196 -0.00213469 0)
(-0.00136169 -0.00223449 0)
(-0.000412505 -0.00190521 0)
(-0.000403289 0.0025883 0)
(-0.00133935 0.00305585 0)
(-0.00235668 0.00294987 0)
(-0.00329221 0.00273984 0)
(-0.00414834 0.00246278 0)
(-0.00490292 0.00212771 0)
(-0.00553903 0.00174278 0)
(-0.00604271 0.00131634 0)
(-0.00640261 0.000856734 0)
(-0.00660985 0.00037238 0)
(-0.0066578 -0.000128004 0)
(-0.00654193 -0.000635397 0)
(-0.0062606 -0.00113917 0)
(-0.00581535 -0.00162753 0)
(-0.00521133 -0.00208701 0)
(-0.00445834 -0.00250257 0)
(-0.00357179 -0.002858 0)
(-0.00257619 -0.00313519 0)
(-0.00147457 -0.0032855 0)
(-0.000446996 -0.00280723 0)
(-0.000438471 0.00347673 0)
(-0.00145635 0.00410117 0)
(-0.00256198 0.00395705 0)
(-0.00357708 0.00367361 0)
(-0.0045048 0.00330086 0)
(-0.00532174 0.00285139 0)
(-0.0060106 0.00233647 0)
(-0.00655735 0.00176729 0)
(-0.0069507 0.00115475 0)
(-0.00718168 0.000509504 0)
(-0.00724326 -0.000157655 0)
(-0.00712985 -0.000835437 0)
(-0.00683821 -0.00151061 0)
(-0.00636811 -0.00216802 0)
(-0.00572264 -0.00278997 0)
(-0.00490985 -0.00335595 0)
(-0.00394431 -0.00384322 0)
(-0.00285169 -0.0042257 0)
(-0.00163546 -0.0044358 0)
(-0.00049638 -0.00379645 0)
(-0.000484973 0.00445136 0)
(-0.00161067 0.00524761 0)
(-0.00283207 0.00506 0)
(-0.00395068 0.00469441 0)
(-0.00497074 0.00421567 0)
(-0.00586743 0.00364081 0)
(-0.00662326 0.00298479 0)
(-0.00722458 0.00226192 0)
(-0.00766054 0.00148559 0)
(-0.00792239 0.000668435 0)
(-0.00800287 -0.000177204 0)
(-0.007895 -0.00103861 0)
(-0.0075933 -0.0019005 0)
(-0.00709482 -0.0027448 0)
(-0.00639936 -0.00354954 0)
(-0.00551181 -0.0042882 0)
(-0.00444461 -0.00492997 0)
(-0.00322423 -0.00543837 0)
(-0.00185437 -0.00572239 0)
(-0.000563905 -0.00490656 0)
(-0.000544502 0.00553737 0)
(-0.00180778 0.0065242 0)
(-0.00317587 0.0062853 0)
(-0.00442416 0.00582535 0)
(-0.00555851 0.00522658 0)
(-0.00655264 0.00451179 0)
(-0.00738951 0.00370047 0)
(-0.00805656 0.00281045 0)
(-0.00854419 0.00185754 0)
(-0.00884449 0.000855776 0)
(-0.00895032 -0.000181738 0)
(-0.00885315 -0.00124203 0)
(-0.00854441 -0.00230891 0)
(-0.00801716 -0.00336229 0)
(-0.00726605 -0.00437625 0)
(-0.00629047 -0.00531769 0)
(-0.00509842 -0.00614591 0)
(-0.00371576 -0.00681042 0)
(-0.00214575 -0.00718991 0)
(-0.000654392 -0.00617899 0)
(-0.000619562 0.00676432 0)
(-0.0020555 0.00796459 0)
(-0.00360585 0.00766297 0)
(-0.00501275 0.00709159 0)
(-0.00628443 0.00635381 0)
(-0.00739356 0.00548013 0)
(-0.00832462 0.00449581 0)
(-0.00906752 0.00342271 0)
(-0.00961522 0.00227886 0)
(-0.00996168 0.00107892 0)
(-0.0101007 -0.000164535 0)
(-0.0100222 -0.00143999 0)
(-0.00971356 -0.00273224 0)
(-0.00916217 -0.00402101 0)
(-0.00835478 -0.00527741 0)
(-0.00728172 -0.00646158 0)
(-0.00594238 -0.0075208 0)
(-0.00435873 -0.00838562 0)
(-0.00253177 -0.0088938 0)
(-0.000775512 -0.00766706 0)
(-0.000713914 0.0081678 0)
(-0.00236519 0.00960847 0)
(-0.00413964 0.00922721 0)
(-0.00573732 0.00852036 0)
(-0.00717012 0.00761782 0)
(-0.00841067 0.00656065 0)
(-0.00944696 0.00538159 0)
(-0.0102735 0.00410715 0)
(-0.010888 0.0027572 0)
(-0.0112879 0.00134585 0)
(-0.0114692 -0.0001166 0)
(-0.0114209 -0.00162282 0)
(-0.0111254 -0.0031613 0)
(-0.0105623 -0.00471481 0)
(-0.00970664 -0.00625405 0)
(-0.00853418 -0.00773307 0)
(-0.00702886 -0.00908522 0)
(-0.0052017 -0.0102158 0)
(-0.00304735 -0.0109047 0)
(-0.000939968 -0.00944253 0)
(-0.000833416 0.00979235 0)
(-0.00275381 0.011504 0)
(-0.00480252 0.0110176 0)
(-0.00662681 0.0101409 0)
(-0.00824432 0.0090384 0)
(-0.00962984 0.00776574 0)
(-0.0107782 0.00636545 0)
(-0.011692 0.00486933 0)
(-0.0123766 0.00329845 0)
(-0.0128355 0.0016645 0)
(-0.0130694 -2.76152e-05 0)
(-0.0130669 -0.00177574 0)
(-0.0128056 -0.00357881 0)
(-0.0122549 -0.00542712 0)
(-0.0113731 -0.00729599 0)
(-0.0101133 -0.00913662 0)
(-0.00843324 -0.0108675 0)
(-0.00631855 -0.0123623 0)
(-0.00374944 -0.0133149 0)
(-0.00116996 -0.0116074 0)
(-0.00098763 0.0116963 0)
(-0.00324731 0.0137111 0)
(-0.00563136 0.0130807 0)
(-0.00772193 0.0119839 0)
(-0.00954548 0.0106329 0)
(-0.0110837 0.00910288 0)
(-0.0123434 0.00744915 0)
(-0.0133406 0.00570944 0)
(-0.0140929 0.00390493 0)
(-0.014614 0.00204243 0)
(-0.0149095 0.000117974 0)
(-0.0149721 -0.00187679 0)
(-0.0147769 -0.0039563 0)
(-0.0142795 -0.00612585 0)
(-0.0134162 -0.00837426 0)
(-0.0121062 -0.0106588 0)
(-0.0102648 -0.0128865 0)
(-0.00782391 -0.0148956 0)
(-0.004735 -0.016247 0)
(-0.00150686 -0.0143155 0)
(-0.00119311 0.0139578 0)
(-0.00388704 0.0163056 0)
(-0.00668109 0.0154713 0)
(-0.0090808 0.01408 0)
(-0.0111256 0.0124129 0)
(-0.0128137 0.0105704 0)
(-0.0141717 0.00862419 0)
(-0.0152363 0.00661839 0)
(-0.0160437 0.00457221 0)
(-0.0166225 0.00248402 0)
(-0.0169886 0.000336787 0)
(-0.0171412 -0.00189656 0)
(-0.0170547 -0.00425076 0)
(-0.0166729 -0.00675692 0)
(-0.0159061 -0.00943089 0)
(-0.0146262 -0.0122531 0)
(-0.0126833 -0.0151344 0)
(-0.00989905 -0.0178909 0)
(-0.00617656 -0.0198616 0)
(-0.00203265 -0.0178126 0)
(-0.00147863 0.0167107 0)
(-0.00473871 0.019395 0)
(-0.0080338 0.0182577 0)
(-0.0107874 0.0164572 0)
(-0.0130555 0.0143786 0)
(-0.0148725 0.0121509 0)
(-0.0162955 0.00986635 0)
(-0.0173927 0.00757323 0)
(-0.0182274 0.00528493 0)
(-0.0188495 0.0029868 0)
(-0.0192902 0.000642505 0)
(-0.0195598 -0.00179861 0)
(-0.0196373 -0.00440115 0)
(-0.0194598 -0.00723531 0)
(-0.0189124 -0.0103635 0)
(-0.0178108 -0.0138163 0)
(-0.0159195 -0.0175422 0)
(-0.0128341 -0.0214065 0)
(-0.0083947 -0.0243327 0)
(-0.00292098 -0.0225506 0)
(-0.00191471 0.0199541 0)
(-0.0059374 0.0230532 0)
(-0.00982429 0.0214988 0)
(-0.0129679 0.0191278 0)
(-0.0154322 0.0165087 0)
(-0.0173262 0.0138033 0)
(-0.0187496 0.0111286 0)
(-0.0198178 0.00853125 0)
(-0.0206302 0.00601207 0)
(-0.0212651 0.00353759 0)
(-0.0217742 0.00104724 0)
(-0.022185 -0.00153994 0)
(-0.0224916 -0.00432638 0)
(-0.0226354 -0.0074358 0)
(-0.0224872 -0.0110033 0)
(-0.0218065 -0.0151547 0)
(-0.0202935 -0.0199326 0)
(-0.0170703 -0.0254604 0)
(-0.012047 -0.029867 0)
(-0.00462157 -0.0293555 0)
(-0.00246523 0.0249057 0)
(-0.00749278 0.027713 0)
(-0.0121936 0.0253739 0)
(-0.0157875 0.0220997 0)
(-0.0183804 0.0187513 0)
(-0.0202531 0.01545 0)
(-0.0215678 0.0123305 0)
(-0.0225094 0.00942183 0)
(-0.0232211 0.00670065 0)
(-0.0238144 0.00410648 0)
(-0.0243677 0.00154972 0)
(-0.0249334 -0.00109148 0)
(-0.0255332 -0.0039396 0)
(-0.0261367 -0.00720762 0)
(-0.026631 -0.0111322 0)
(-0.0267431 -0.0160048 0)
(-0.0262432 -0.0220174 0)
(-0.0233197 -0.0299536 0)
(-0.0183878 -0.0364914 0)
(-0.00810406 -0.0397833 0)
(-0.00421933 0.0283003 0)
(-0.0108258 0.0325889 0)
(-0.0156949 0.0295317 0)
(-0.0196029 0.0252481 0)
(-0.0220808 0.0209835 0)
(-0.0237475 0.0169576 0)
(-0.0247773 0.013346 0)
(-0.0254466 0.0101389 0)
(-0.0259438 0.00727229 0)
(-0.0264135 0.00465065 0)
(-0.026969 0.00216093 0)
(-0.0276705 -0.000333589 0)
(-0.028603 -0.00303806 0)
(-0.0298229 -0.00617265 0)
(-0.0312778 -0.0100359 0)
(-0.0326936 -0.0152262 0)
(-0.0342222 -0.0218309 0)
(-0.0323764 -0.0333311 0)
(-0.0296092 -0.0423203 0)
(-0.015339 -0.0564413 0)
(-0.00401123 0.0427009 0)
(-0.0123442 0.0391787 0)
(-0.0198072 0.0350313 0)
(-0.024374 0.0281748 0)
(-0.0266672 0.0226954 0)
(-0.0278758 0.0179193 0)
(-0.0283567 0.0138837 0)
(-0.028539 0.0104747 0)
(-0.0286512 0.00757148 0)
(-0.0288537 0.00503349 0)
(-0.0292657 0.00270281 0)
(-0.0300301 0.00039866 0)
(-0.0312488 -0.00211024 0)
(-0.0329785 -0.00513348 0)
(-0.035468 -0.00908397 0)
(-0.0382296 -0.015068 0)
(-0.0437023 -0.0232077 0)
(-0.0440447 -0.0393732 0)
(-0.0482503 -0.0541055 0)
(-0.0270422 -0.0878148 0)
(-0.0119571 0.0395458 0)
(-0.0265088 0.051725 0)
(-0.0265742 0.0421203 0)
(-0.0320186 0.0336683 0)
(-0.0320646 0.0258815 0)
(-0.0319674 0.0194633 0)
(-0.0313137 0.0145234 0)
(-0.0305859 0.0107317 0)
(-0.0299928 0.0077844 0)
(-0.0297032 0.00543359 0)
(-0.029856 0.0034893 0)
(-0.0305693 0.00179421 0)
(-0.0320416 0.000307985 0)
(-0.0344682 -0.00128707 0)
(-0.038547 -0.00247242 0)
(-0.0433746 -0.0068511 0)
(-0.0532806 -0.00817059 0)
(-0.0541204 -0.0297765 0)
(-0.0653462 -0.0442184 0)
(-0.0222355 -0.130161 0)
(-0.0524654 0.091768 0)
(-0.0404442 0.0437236 0)
(-0.0426331 0.039228 0)
(-0.0344713 0.0281142 0)
(-0.0271533 0.0200618 0)
(-0.020909 0.0147827 0)
(-0.015627 0.0109749 0)
(-0.0115472 0.00812121 0)
(-0.0085179 0.00597985 0)
(-0.00637699 0.00435675 0)
(-0.00500176 0.00311738 0)
(-0.00422209 0.00211747 0)
(-0.00422353 0.00136153 0)
(-0.00387391 0.000306752 0)
(-0.00676183 -0.000671914 0)
(-0.00265767 -0.00523134 0)
(-0.0141859 -0.0127364 0)
(0.00506986 -0.0421083 0)
(-0.0294187 -0.0922866 0)
(0.0267351 -0.201502 0)
(0.102433 0.111798 0)
(0.122367 0.0565798 0)
(0.178983 0.0372094 0)
(0.208671 0.0245728 0)
(0.227784 0.0156199 0)
(0.241813 0.0100413 0)
(0.251895 0.00675769 0)
(0.259058 0.00472831 0)
(0.264272 0.00339433 0)
(0.268141 0.002475 0)
(0.270848 0.00183809 0)
(0.273084 0.00129163 0)
(0.27353 0.000941208 0)
(0.27629 0.000343187 0)
(0.270708 -0.000602271 0)
(0.280144 -0.000983663 0)
(0.252775 -0.00609837 0)
(0.272012 -0.011877 0)
(0.175487 -0.0351109 0)
(0.166558 -0.0962634 0)
)
;

boundaryField
{
    movingWall
    {
        type            fixedValue;
        value           uniform (1 0 0);
    }
    fixedWalls
    {
        type            noSlip;
    }
    frontAndBack
    {
        type            empty;
    }
}


// ************************************************************************* //
