/*--------------------------------*- C++ -*----------------------------------*\
  =========                 |
  \\      /  F ield         | OpenFOAM: The Open Source CFD Toolbox
   \\    /   O peration     | Website:  https://openfoam.org
    \\  /    A nd           | Version:  9
     \\/     M anipulation  |
\*---------------------------------------------------------------------------*/
FoamFile
{
    format      ascii;
    class       volScalarField;
    location    "2";
    object      p;
}
// * * * * * * * * * * * * * * * * * * * * * * * * * * * * * * * * * * * * * //

dimensions      [0 2 -2 0 0 0 0];

internalField   nonuniform List<scalar> 
8000
(
7.74115e-07
1.82288e-05
7.59375e-05
0.00016633
0.000288824
0.000441023
0.000619819
0.000821412
0.00104134
0.0012745
0.00151524
0.00175741
0.00199447
0.00221963
0.00242612
0.00260734
0.00275719
0.00287036
0.00294396
0.00296797
-1.60518e-05
7.72577e-07
5.88073e-05
0.000149788
0.0002732
0.000426667
0.000607097
0.000810705
0.00103303
0.00126896
0.00151277
0.00175835
0.00199901
0.00222788
0.002438
0.00262261
0.00277545
0.00289098
0.00296629
0.00299075
-7.52416e-05
-5.83881e-05
1.32041e-06
9.51052e-05
0.000222503
0.00038111
0.000567808
0.000778767
0.00100946
0.00125468
0.00150867
0.00176498
0.00201672
0.0022567
0.0024776
0.00267221
0.00283371
0.00295607
0.00303599
0.00306191
-0.000172257
-0.000154923
-9.23498e-05
6.09964e-06
0.000140049
0.000307068
0.000503989
0.00072691
0.000971193
0.00123149
0.00150178
0.00177546
0.00204516
0.00230322
0.0025417
0.00275262
0.00292835
0.00306196
0.00314952
0.00317811
-0.000309607
-0.00029152
-0.00022489
-0.00011987
2.32825e-05
0.000202101
0.000413352
0.000653032
0.000916359
0.00119779
0.00149102
0.00178914
0.00208425
0.00236802
0.00263164
0.00286607
0.00306246
0.00321253
0.00331133
0.00334399
-0.000490354
-0.000471313
-0.000399437
-0.000285922
-0.000130863
6.32282e-05
0.00029304
0.000554444
0.000842489
0.0011514
0.00147457
0.00180473
0.00213337
0.00245131
0.00274866
0.00301499
0.0032397
0.00341259
0.00352714
0.00356564
-0.000718425
-0.000698303
-0.00062
-0.000496049
-0.000326325
-0.000113389
0.000139352
0.000427629
0.000746307
0.00108938
0.00144991
0.00182027
0.00219133
0.00255298
0.00289402
0.00320223
0.00346472
0.00366851
0.0038047
0.00385148
-0.000998764
-0.000977533
-0.000891636
-0.000755288
-0.000568066
-0.000332591
-5.2384e-05
0.000268123
0.000623605
0.00100785
0.00141366
0.00183293
0.00225615
0.00267231
0.00306871
0.00343095
0.00374316
0.0039885
0.0041543
0.00421294
-0.00133744
-0.00131521
-0.00122058
-0.00106984
-0.000862188
-0.000600314
-0.000287896
7.04261e-05
0.000469124
0.000901814
0.00136119
0.00183863
0.00232464
0.00280748
0.00327294
0.00370417
0.00408151
0.0043828
0.00458947
0.00466555
-0.00174181
-0.00171888
-0.00161444
-0.00144727
-0.00121609
-0.000923708
-0.000574049
-0.000172054
0.000276494
0.000765081
0.00128641
0.00183175
0.0023919
0.00295484
0.00350535
0.00402399
0.00448658
0.00486397
0.00512784
0.00523065
-0.00222081
-0.00219774
-0.00208251
-0.00189675
-0.00163867
-0.00131126
-0.000918896
-0.000467006
3.82319e-05
0.000590136
0.00118152
0.00180471
0.0024507
0.00310809
0.00376166
0.00439022
0.00496444
0.00544668
0.00579214
0.00593845
-0.00278549
-0.00276312
-0.00263628
-0.0024295
-0.00214063
-0.00177296
-0.00133168
-0.000823089
-0.000253986
0.000368746
0.00103835
0.00174813
0.00249086
0.00325703
0.00403304
0.00479788
0.00551804
0.00614702
0.00661112
0.0068328
-0.00344894
-0.00342875
-0.00329008
-0.00305936
-0.00273488
-0.00232039
-0.0018227
-0.00124957
-0.000608969
9.1828e-05
0.000846608
0.00165024
0.00249859
0.00338606
0.00430356
0.00523381
0.006142
0.00697999
0.00761974
0.00797917
-0.00423594
-0.00421576
-0.00406384
-0.00380407
-0.00343719
-0.0029668
-0.00240274
-0.00175544
-0.00103493
-0.00024931
0.000595872
0.00149761
0.00245627
0.00347274
0.00454654
0.00567058
0.00681308
0.00795091
0.00884506
0.00948874
-0.00512042
-0.00513336
-0.00497645
-0.00468475
-0.00426652
-0.00372661
-0.00308202
-0.00234792
-0.00153764
-0.000660802
0.000277378
0.00127499
0.00234275
0.00348627
0.00471869
0.00605504
0.00747276
0.00904859
0.0103088
0.0115351
-0.00637082
-0.00627229
-0.00608991
-0.00573911
-0.00524786
-0.00461478
-0.00386868
-0.00303064
-0.00211847
-0.0011435
-0.000109627
0.0009886
0.00215597
0.00341833
0.00481199
0.00639209
0.00813489
0.0103172
0.0120558
0.0143929
-0.00738072
-0.00760157
-0.00739225
-0.00700316
-0.00641353
-0.00564927
-0.00476845
-0.00380195
-0.00277289
-0.00169612
-0.00058053
0.000571466
0.00176522
0.00305442
0.00444952
0.00614482
0.0078256
0.010992
0.0129676
0.0181232
-0.0101161
-0.00887647
-0.00894546
-0.00828925
-0.00760144
-0.00671868
-0.00571191
-0.00461324
-0.0034578
-0.00226737
-0.00104825
0.000212993
0.00154549
0.00300991
0.00458024
0.00654705
0.00864185
0.012702
0.015706
0.0238379
-0.0110224
-0.0125905
-0.0116227
-0.0109945
-0.00982641
-0.00844711
-0.00703743
-0.00563911
-0.00427075
-0.00293721
-0.00164316
-0.00038573
0.000800269
0.00202285
0.00269236
0.0048574
0.00417937
0.0102902
0.00918907
0.027118
-0.0230283
-0.0117813
-0.0120071
-0.0110731
-0.00984904
-0.00858787
-0.00727089
-0.00590003
-0.0045231
-0.00316612
-0.001844
-0.000531995
0.000712203
0.00208203
0.00326813
0.00551643
0.00763598
0.0156818
0.0264788
0.0593283
2.12554e-06
1.75656e-05
7.50029e-05
0.00016527
0.000287798
0.000440114
0.00061908
0.000820888
0.00104107
0.00127452
0.00151558
0.00175808
0.00199549
0.00222101
0.00242782
0.00260933
0.00275938
0.00287257
0.00294608
0.0029685
-1.36692e-05
1.51466e-06
5.93092e-05
0.000150069
0.000273378
0.000426789
0.000607192
0.0008108
0.00103315
0.00126913
0.00151303
0.00175872
0.00199951
0.00222851
0.00243878
0.00262352
0.00277642
0.00289187
0.00296703
0.0029898
-7.2584e-05
-5.73802e-05
2.10431e-06
9.56533e-05
0.000222921
0.000381442
0.000568082
0.000779008
0.00100969
0.00125494
0.00150897
0.00176536
0.0020172
0.00225731
0.00247833
0.00267304
0.00283459
0.00295685
0.0030366
0.0030607
-0.000169212
-0.000153622
-9.12779e-05
6.91432e-06
0.00014071
0.000307617
0.000504454
0.000727315
0.000971565
0.00123186
0.00150218
0.00177591
0.0020457
0.00230387
0.00254246
0.00275349
0.00292926
0.00306274
0.00315011
0.00317673
-0.000306123
-0.000289927
-0.000223538
-0.000118799
2.41797e-05
0.000202868
0.000414017
0.000653621
0.000916901
0.00119831
0.00149158
0.00178974
0.00208494
0.00236882
0.00263256
0.00286711
0.00306355
0.00321348
0.00331207
0.00334252
-0.000486319
-0.000469364
-0.000397749
-0.000284548
-0.000129686
6.42553e-05
0.000293948
0.000555262
0.00084325
0.00115214
0.00147534
0.00180555
0.00213428
0.00245235
0.00274985
0.00301632
0.00324111
0.00341386
0.00352818
0.00356416
-0.000713668
-0.000695884
-0.00061787
-0.000494279
-0.000324786
-0.000112029
0.000140569
0.000428739
0.000747348
0.00109039
0.00145095
0.00182138
0.00219255
0.00255436
0.0028956
0.003204
0.00346662
0.0036703
0.00380624
0.00385011
-0.000993044
-0.000974471
-0.000888905
-0.000752984
-0.000566048
-0.000330798
-5.07709e-05
0.0002696
0.000624994
0.00100919
0.00141499
0.00183439
0.00225777
0.00267415
0.00307082
0.00343336
0.0037458
0.00399108
0.00415665
0.00421192
-0.00133041
-0.00131125
-0.00121702
-0.00106681
-0.000859536
-0.000597963
-0.000285786
7.23551e-05
0.000470936
0.000903577
0.00136293
0.00184054
0.00232677
0.0028099
0.00327577
0.00370746
0.00408522
0.00438663
0.00459313
0.00466527
-0.00173296
-0.00171364
-0.00160971
-0.00144325
-0.0012126
-0.000920649
-0.000571333
-0.000169594
0.000278783
0.000767279
0.00128863
0.00183414
0.00239461
0.00295799
0.0035091
0.00402849
0.00449186
0.00486973
0.00513365
0.00523201
-0.00220935
-0.00219063
-0.00207613
-0.00189139
-0.00163409
-0.00130733
-0.000915475
-0.000463955
4.10582e-05
0.000592912
0.00118449
0.00180775
0.00245408
0.00311209
0.00376656
0.00439634
0.00497198
0.0054555
0.00580146
0.00594305
-0.00277016
-0.00275319
-0.00262754
-0.0024223
-0.00213468
-0.00176802
-0.00132752
-0.000819483
-0.000250722
0.000371876
0.00104153
0.00175162
0.00249485
0.00326188
0.00403924
0.00480604
0.00552872
0.00616071
0.00662628
0.00684451
-0.00342729
-0.00341435
-0.00327787
-0.0030497
-0.00272731
-0.00231445
-0.00181795
-0.00124564
-0.000605541
9.5057e-05
0.000849929
0.00165397
0.00250295
0.00339151
0.00431093
0.00524422
0.00615669
0.0070012
0.00764467
0.00800634
-0.00420434
-0.00419477
-0.00404682
-0.00379139
-0.00342808
-0.00296028
-0.00239803
-0.00175188
-0.00103204
-0.000246644
0.000598742
0.00150108
0.00246026
0.00347793
0.00455414
0.00568236
0.00683132
0.00798245
0.00888438
0.00955001
-0.00506228
-0.00509946
-0.00495124
-0.0046686
-0.0042569
-0.00372113
-0.00307914
-0.00234647
-0.00153693
-0.000660208
0.000278579
0.00127809
0.00234505
0.00348909
0.0047236
0.00606457
0.00748994
0.00909256
0.0103669
0.0116713
-0.00628956
-0.00622122
-0.00605703
-0.00572218
-0.00524218
-0.00461527
-0.0038722
-0.00303525
-0.00212322
-0.00114785
-0.000112568
0.000991848
0.00215214
0.00341319
0.0048067
0.00639088
0.00813471
0.0103631
0.0121089
0.0146539
-0.00719118
-0.00754327
-0.00735371
-0.00700235
-0.00643005
-0.00567101
-0.00479033
-0.00382173
-0.00279034
-0.00171202
-0.000596975
0.000547659
0.00174763
0.00303271
0.00441184
0.00609874
0.00772232
0.0109701
0.012873
0.0185492
-0.00975217
-0.00861406
-0.00884509
-0.00825102
-0.00761768
-0.00675553
-0.0057562
-0.00465625
-0.00349621
-0.00230089
-0.00107882
0.000182372
0.00150827
0.00296208
0.00449998
0.00643003
0.00836969
0.0124386
0.0151641
0.0240485
-0.010142
-0.0126286
-0.0117276
-0.0112806
-0.0101134
-0.00869141
-0.00723083
-0.00578753
-0.00438515
-0.00302785
-0.00172083
-0.000458082
0.000705909
0.00194385
0.00242105
0.00463351
0.00324143
0.00966355
0.00710272
0.0274616
-0.0219507
-0.0112734
-0.011782
-0.0111427
-0.00999503
-0.00874292
-0.0074193
-0.00602846
-0.00462968
-0.00325466
-0.00192494
-0.000604282
0.000610516
0.00197395
0.00300017
0.00518139
0.00698007
0.0151973
0.0277056
0.063299
3.01412e-06
1.80698e-05
7.53435e-05
0.000165491
0.000287954
0.000440239
0.000619202
0.000821028
0.00104124
0.00127475
0.00151588
0.00175848
0.00199598
0.0022216
0.0024285
0.00261008
0.00276016
0.00287334
0.00294681
0.00296897
-1.2633e-05
2.22009e-06
5.98748e-05
0.000150508
0.000273729
0.000427082
0.00060745
0.000811041
0.00103339
0.0012694
0.00151334
0.00175908
0.00199992
0.00222899
0.00243932
0.00262411
0.00277702
0.00289244
0.00296756
0.00299007
-7.14527e-05
-5.65627e-05
2.80098e-06
9.62222e-05
0.000223393
0.000381842
0.000568431
0.000779326
0.00101
0.00125525
0.00150931
0.00176574
0.00201763
0.0022578
0.00247888
0.00267363
0.0028352
0.00295742
0.00303712
0.00306094
-0.000167891
-0.000152627
-9.04035e-05
7.65111e-06
0.000141337
0.000308155
0.000504922
0.000727733
0.000971954
0.00123224
0.00150257
0.00177634
0.00204617
0.0023044
0.00254305
0.00275413
0.00292991
0.00306336
0.00315068
0.00317699
-0.000304546
-0.000288704
-0.000222448
-0.000117866
2.49827e-05
0.00020356
0.00041462
0.000654156
0.000917391
0.00119878
0.00149205
0.00179024
0.00208549
0.00236943
0.00263324
0.00286786
0.00306433
0.00321423
0.00331277
0.00334289
-0.000484403
-0.000467846
-0.000396385
-0.00028337
-0.000128668
6.51336e-05
0.00029471
0.000555932
0.000843857
0.00115272
0.00147592
0.00180615
0.00213494
0.00245309
0.00275068
0.00301724
0.00324209
0.00341484
0.00352912
0.00356474
-0.000711301
-0.000693973
-0.000616147
-0.000492787
-0.000323499
-0.000110925
0.000141519
0.000429565
0.000748085
0.00109108
0.00145163
0.00182209
0.00219334
0.00255526
0.00289663
0.00320518
0.00346791
0.00367162
0.00380755
0.00385102
-0.000990067
-0.000972029
-0.000886706
-0.000751085
-0.000564423
-0.00032942
-4.96045e-05
0.000270597
0.000625866
0.00100998
0.00141574
0.00183521
0.0022587
0.00267524
0.0030721
0.00343487
0.00374752
0.00399292
0.00415853
0.0042133
-0.0013266
-0.00130808
-0.00121418
-0.00106438
-0.000857487
-0.000596262
-0.000284382
7.35225e-05
0.000471931
0.000904459
0.00136374
0.00184144
0.00232781
0.00281117
0.00327733
0.00370938
0.00408752
0.0043892
0.00459588
0.00466749
-0.00172799
-0.00170947
-0.00160601
-0.00144013
-0.00121003
-0.000918581
-0.000569691
-0.000168288
0.000279852
0.000768226
0.00128953
0.0018351
0.00239571
0.00295938
0.00351092
0.00403088
0.0044949
0.00487335
0.00513769
0.00523556
-0.00220272
-0.00218504
-0.00207126
-0.00188737
-0.0016309
-0.00130488
-0.000913642
-0.000462604
4.20691e-05
0.00059373
0.00118531
0.00180854
0.00245505
0.00311344
0.00376853
0.00439917
0.0049759
0.00546057
0.00580745
0.00594893
-0.0027611
-0.0027456
-0.00262105
-0.00241715
-0.00213079
-0.00176523
-0.00132564
-0.000818282
-0.000250001
0.000372296
0.00104182
0.00175196
0.00249539
0.00326289
0.00404104
0.0048091
0.00553353
0.00616767
0.00663508
0.00685433
-0.00341456
-0.00340381
-0.00326916
-0.00304312
-0.0027227
-0.0023115
-0.00181631
-0.00124495
-0.000605483
9.47388e-05
0.00084941
0.00165345
0.00250253
0.00339158
0.00431189
0.00524688
0.00616196
0.00701039
0.00765727
0.00802257
-0.0041859
-0.00417997
-0.0040351
-0.00378314
-0.00342293
-0.00295761
-0.00239722
-0.00175235
-0.00103326
-0.000248257
0.000596963
0.00149925
0.00245831
0.00347612
0.004553
0.00568322
0.00683564
0.0079935
0.00890125
0.0095771
-0.00503374
-0.00507811
-0.00493515
-0.00465849
-0.00425175
-0.00371967
-0.00308026
-0.00234915
-0.00154045
-0.000664116
0.000274585
0.00127407
0.00234033
0.00348378
0.00471816
0.00606064
0.00748945
0.00910379
0.0103868
0.0117167
-0.00624755
-0.00619028
-0.00603528
-0.00571057
-0.0052383
-0.00461677
-0.00387709
-0.00304195
-0.00213077
-0.0011557
-0.000120187
0.000985452
0.0021434
0.00340316
0.00479568
0.00638119
0.0081266
0.0103721
0.012128
0.0147249
-0.00712091
-0.00750222
-0.00732565
-0.00699253
-0.00643162
-0.00567965
-0.0048027
-0.00383564
-0.00280473
-0.00172673
-0.000612766
0.000528715
0.00172728
0.00300876
0.00437894
0.0060641
0.00766833
0.0109518
0.0128486
0.01865
-0.00963569
-0.00852749
-0.0087927
-0.0082277
-0.0076165
-0.00676721
-0.00577494
-0.00467779
-0.00351828
-0.00232275
-0.00110103
0.00015863
0.00148142
0.00293186
0.00446012
0.00638163
0.00829337
0.012386
0.0150985
0.0241463
-0.00993956
-0.012551
-0.0116858
-0.0113008
-0.0101561
-0.00874187
-0.00728048
-0.00583255
-0.00442508
-0.0030638
-0.00175516
-0.00049367
0.000660606
0.00190082
0.00230963
0.00454936
0.00297838
0.00952931
0.00669497
0.0276487
-0.021716
-0.0111291
-0.0116953
-0.0111308
-0.0100158
-0.00877746
-0.0074589
-0.00606763
-0.00466639
-0.00328913
-0.00195961
-0.000641139
0.000562657
0.0019158
0.00290379
0.00506767
0.00682617
0.0151629
0.0279787
0.0640878
3.80603e-06
1.85726e-05
7.57075e-05
0.000165744
0.000288141
0.000440395
0.000619356
0.000821205
0.00104146
0.00127503
0.00151624
0.00175893
0.00199653
0.00222224
0.00242924
0.00261088
0.00276101
0.00287416
0.00294757
0.00296949
-1.16159e-05
2.96719e-06
6.04885e-05
0.000150999
0.000274133
0.000427426
0.000607758
0.000811335
0.00103369
0.00126972
0.0015137
0.00175949
0.00200041
0.00222955
0.00243994
0.00262478
0.00277771
0.00289309
0.00296814
0.00299039
-7.02673e-05
-5.56499e-05
3.57793e-06
9.6867e-05
0.000223937
0.00038231
0.000568844
0.000779705
0.00101036
0.00125562
0.00150971
0.00176619
0.00201813
0.00225835
0.0024795
0.0026743
0.00283587
0.00295805
0.00303768
0.00306122
-0.000166481
-0.000151504
-8.94253e-05
8.48143e-06
0.000142047
0.000308767
0.000505459
0.000728216
0.000972406
0.00123268
0.00150303
0.00177683
0.00204671
0.002305
0.00254372
0.00275484
0.00293064
0.00306405
0.00315129
0.0031773
-0.000302851
-0.000287322
-0.000221228
-0.000116817
2.58864e-05
0.000204342
0.000415301
0.000654761
0.000917947
0.00119932
0.00149259
0.00179081
0.00208611
0.00237012
0.00263401
0.00286868
0.00306518
0.00321505
0.00331352
0.00334331
-0.000482338
-0.000466131
-0.00039486
-0.00028205
-0.000127529
6.61161e-05
0.000295561
0.000556681
0.000844534
0.00115335
0.00147655
0.00180682
0.00213567
0.00245391
0.0027516
0.00301826
0.00324317
0.00341591
0.00353012
0.00356538
-0.000708745
-0.000691818
-0.000614224
-0.00049112
-0.000322066
-0.000109698
0.000142571
0.000430477
0.000748898
0.00109183
0.00145237
0.00182287
0.0021942
0.00255624
0.00289776
0.00320646
0.00346931
0.00367306
0.00380896
0.00385203
-0.00098685
-0.000969285
-0.000884257
-0.000748971
-0.000562621
-0.000327899
-4.83233e-05
0.000271687
0.000626819
0.00101086
0.00141659
0.00183611
0.0022597
0.0026764
0.00307349
0.00343649
0.00374937
0.0039949
0.00416055
0.00421493
-0.00132248
-0.00130453
-0.00121103
-0.00106169
-0.000855226
-0.000594393
-0.000282849
7.47892e-05
0.000473009
0.00090543
0.0013647
0.00184243
0.00232893
0.00281252
0.003279
0.00371143
0.00408996
0.00439196
0.00459881
0.00467006
-0.00172261
-0.00170481
-0.00160191
-0.00143668
-0.0012072
-0.00091632
-0.000567907
-0.000166877
0.000281001
0.000769224
0.00129052
0.0018361
0.00239688
0.00296085
0.00351286
0.00403341
0.0044981
0.00487719
0.00514198
0.00523965
-0.00219554
-0.00217883
-0.00206587
-0.00188294
-0.0016274
-0.00130221
-0.000911653
-0.000461141
4.31652e-05
0.000594605
0.00118606
0.00180939
0.00245611
0.00311488
0.00377061
0.00440215
0.00498
0.00546589
0.00581373
0.00595544
-0.00275131
-0.00273716
-0.0026139
-0.00241147
-0.00212652
-0.00176219
-0.00132358
-0.000816966
-0.000249186
0.000372796
0.00104216
0.00175233
0.00249598
0.00326393
0.00404297
0.0048123
0.00553852
0.00617492
0.00664425
0.00686479
-0.00340084
-0.00339216
-0.0032596
-0.0030359
-0.00271766
-0.00230828
-0.0018145
-0.00124418
-0.000605428
9.43473e-05
0.000848812
0.00165282
0.00250205
0.00339153
0.00431288
0.0052496
0.00616739
0.0070199
0.00767043
0.00803975
-0.00416602
-0.00416364
-0.00402228
-0.00377411
-0.0034173
-0.0029547
-0.00239632
-0.00175287
-0.00103474
-0.000250299
0.000594632
0.00149679
0.00245571
0.00347371
0.00455152
0.00568382
0.00683992
0.00800484
0.00891904
0.00960583
-0.00500329
-0.0050547
-0.00491781
-0.00464752
-0.00424615
-0.00371811
-0.00308149
-0.00235222
-0.00154464
-0.000668938
0.000269459
0.0012687
0.00233413
0.00347697
0.00471132
0.00605544
0.00748808
0.00911475
0.0104077
0.0117646
-0.0062036
-0.00615723
-0.00601236
-0.0056982
-0.00523435
-0.00461866
-0.00388258
-0.0030495
-0.00213944
-0.00116496
-0.000129548
0.000977367
0.00213254
0.00339075
0.00478198
0.00636851
0.00811639
0.0103803
0.0121495
0.0148012
-0.00704855
-0.00745819
-0.00729646
-0.00698138
-0.00643351
-0.00568894
-0.00481587
-0.00385052
-0.00282033
-0.00174291
-0.000630358
0.000507131
0.00170342
0.0029804
0.004341
0.00602317
0.00760967
0.0109294
0.0128318
0.0187582
-0.00951806
-0.00843898
-0.00874181
-0.00820597
-0.00761799
-0.00678182
-0.00579635
-0.0047017
-0.00354252
-0.00234672
-0.00112533
0.00013283
0.00145307
0.00290012
0.00441882
0.00633036
0.00821944
0.0123354
0.0150541
0.0242603
-0.00977455
-0.0124991
-0.0116508
-0.0113195
-0.0101962
-0.00878997
-0.00732894
-0.00587757
-0.00446589
-0.0031013
-0.00179164
-0.000532619
0.000611181
0.00184685
0.00219328
0.00445075
0.00273641
0.00938043
0.00650605
0.027716
-0.0214618
-0.0109547
-0.0115936
-0.0111033
-0.0100339
-0.0088154
-0.0075039
-0.00611301
-0.00470912
-0.00332885
-0.00199839
-0.00068091
0.000514849
0.00186135
0.00281728
0.00496538
0.0066848
0.0150933
0.0280859
0.0646864
4.52608e-06
1.91938e-05
7.62491e-05
0.000166207
0.000288539
0.000440747
0.000619677
0.000821511
0.00104177
0.00127536
0.0015166
0.00175934
0.00199698
0.00222275
0.0024298
0.00261148
0.00276162
0.00287477
0.00294815
0.00296999
-1.07965e-05
3.68391e-06
6.11226e-05
0.000151547
0.000274608
0.000427843
0.000608133
0.000811684
0.00103403
0.00127007
0.00151407
0.0017599
0.00200086
0.00223004
0.00244047
0.00262534
0.00277829
0.00289366
0.00296868
0.00299086
-6.93245e-05
-5.48122e-05
4.32928e-06
9.75244e-05
0.000224511
0.000382813
0.000569292
0.000780115
0.00101075
0.00125601
0.00151011
0.00176661
0.0020186
0.00225887
0.00248005
0.00267489
0.00283648
0.00295865
0.00303825
0.00306172
-0.000165356
-0.000150492
-8.85094e-05
9.28943e-06
0.000142754
0.000309386
0.000506004
0.000728707
0.000972861
0.00123312
0.00150348
0.0017773
0.00204722
0.00230556
0.00254432
0.00275548
0.00293131
0.00306471
0.00315193
0.00317786
-0.000301483
-0.00028608
-0.000220098
-0.000115817
2.67614e-05
0.000205103
0.000415966
0.000655349
0.000918481
0.00119982
0.00149309
0.00179134
0.00208668
0.00237075
0.00263469
0.00286943
0.00306597
0.00321585
0.0033143
0.00334401
-0.000480646
-0.000464586
-0.000393453
-0.000280805
-0.000126445
6.70513e-05
0.000296366
0.000557382
0.000845158
0.00115393
0.00147712
0.00180741
0.00213631
0.00245462
0.00275241
0.00301915
0.00324414
0.00341692
0.00353114
0.00356632
-0.000706621
-0.000689873
-0.000612455
-0.000489563
-0.000320722
-0.000108554
0.000143538
0.000431299
0.000749612
0.00109248
0.001453
0.00182352
0.00219491
0.00255706
0.00289871
0.00320755
0.00347054
0.00367438
0.00381033
0.00385333
-0.000984149
-0.000966807
-0.000882013
-0.000747013
-0.000560956
-0.00032651
-4.71797e-05
0.000272628
0.000627608
0.00101155
0.00141725
0.00183678
0.00226046
0.00267731
0.00307459
0.00343782
0.00375093
0.00399665
0.00416242
0.00421676
-0.00131899
-0.00130134
-0.00120816
-0.00105922
-0.000853167
-0.000592726
-0.000281527
7.58252e-05
0.000473828
0.000906109
0.00136531
0.00184307
0.00232968
0.00281346
0.00328023
0.00371302
0.00409193
0.00439428
0.0046014
0.00467268
-0.00171805
-0.00170064
-0.00159821
-0.00143356
-0.00120468
-0.000914352
-0.000566433
-0.00016581
0.00028176
0.000769779
0.00129095
0.00183657
0.00239748
0.00296171
0.00351412
0.00403522
0.00450054
0.00488026
0.00514557
0.0052434
-0.0021895
-0.00217333
-0.00206107
-0.00187899
-0.00162433
-0.00129995
-0.000910101
-0.000460166
4.3702e-05
0.000594846
0.00118616
0.00180947
0.00245633
0.00311543
0.00377169
0.00440404
0.00498289
0.00546988
0.00581867
0.00596089
-0.00274316
-0.00272982
-0.00260764
-0.00240649
-0.00212284
-0.0017597
-0.0013221
-0.000816297
-0.000249134
0.000372476
0.00104164
0.00175176
0.00249551
0.00326379
0.00404342
0.00481391
0.00554167
0.00617993
0.00665095
0.00687272
-0.00338971
-0.00338227
-0.00325139
-0.00302965
-0.00271336
-0.00230571
-0.00181337
-0.00124416
-0.00060617
9.31179e-05
0.00084731
0.00165119
0.00250041
0.00339014
0.00431217
0.0052503
0.00617024
0.00702584
0.00767924
0.00805129
-0.00415055
-0.00415022
-0.00401151
-0.00376638
-0.00341247
-0.00295238
-0.00239599
-0.001754
-0.00103685
-0.000253026
0.00059156
0.0014935
0.00245214
0.00347014
0.00454852
0.00568235
0.00684126
0.00801106
0.00892991
0.0096226
-0.00498139
-0.00503638
-0.00490363
-0.00463807
-0.00424105
-0.00371658
-0.00308267
-0.0023553
-0.00154896
-0.00067402
0.000263992
0.00126298
0.0023275
0.00346972
0.00470408
0.00604958
0.00748536
0.00911977
0.0104197
0.0117888
-0.00617331
-0.00613236
-0.00599385
-0.00568697
-0.00522942
-0.00461871
-0.00388628
-0.0030556
-0.00214706
-0.00117349
-0.000138333
0.000970266
0.00212235
0.0033793
0.00476998
0.00635786
0.0081089
0.0103836
0.0121626
0.0148346
-0.00700537
-0.0074257
-0.00727265
-0.00696854
-0.00642957
-0.00569178
-0.00482334
-0.0038609
-0.00283253
-0.00175652
-0.000645867
0.000487254
0.00168273
0.0029572
0.00431305
0.00599532
0.00757727
0.0109177
0.0128308
0.0187994
-0.00945514
-0.00838725
-0.00870591
-0.00818668
-0.00761224
-0.00678612
-0.0058073
-0.00471656
-0.00355954
-0.00236511
-0.00114511
0.000111298
0.00143025
0.00287625
0.00439149
0.00630065
0.00818729
0.0123203
0.015061
0.0243059
-0.00969942
-0.0124532
-0.0116138
-0.0113058
-0.0101988
-0.00880315
-0.00734834
-0.00589997
-0.00448954
-0.00312568
-0.00181732
-0.00056115
0.000576432
0.0018082
0.00212632
0.00439524
0.00263637
0.0093218
0.00647234
0.0277236
-0.0213541
-0.0108685
-0.0115351
-0.0110768
-0.01003
-0.0088253
-0.00752226
-0.0061356
-0.00473353
-0.0033542
-0.00202512
-0.000709972
0.000481034
0.00182314
0.0027664
0.00491002
0.00662222
0.0150706
0.0281188
0.0648451
5.16712e-06
1.97776e-05
7.67744e-05
0.00016667
0.000288948
0.000441111
0.00062001
0.000821827
0.00104208
0.00127568
0.00151694
0.00175971
0.00199739
0.00222319
0.00243028
0.00261199
0.00276214
0.00287529
0.00294866
0.00297046
-1.00883e-05
4.3364e-06
6.17153e-05
0.000152074
0.000275074
0.000428257
0.000608508
0.000812033
0.00103437
0.00127041
0.00151442
0.00176027
0.00200126
0.00223048
0.00244095
0.00262584
0.0027788
0.00289417
0.00296918
0.00299132
-6.85105e-05
-5.40568e-05
5.02058e-06
9.81427e-05
0.000225058
0.000383299
0.000569727
0.000780512
0.00101113
0.00125638
0.00151048
0.00176701
0.00201902
0.00225932
0.00248055
0.00267541
0.00283702
0.00295919
0.00303878
0.00306221
-0.000164387
-0.000149587
-8.7677e-05
1.00362e-05
0.000143415
0.000309969
0.00050652
0.00072917
0.000973289
0.00123353
0.00150389
0.00177772
0.00204768
0.00230605
0.00254486
0.00275606
0.00293191
0.00306532
0.00315253
0.00317842
-0.000300302
-0.000284973
-0.000219079
-0.000114902
2.75681e-05
0.000205808
0.000416581
0.000655892
0.000918973
0.00120028
0.00149355
0.0017918
0.00208718
0.00237129
0.0026353
0.00287009
0.00306668
0.00321658
0.00331504
0.0033447
-0.000479183
-0.000463211
-0.000392188
-0.000279675
-0.000125456
6.79051e-05
0.000297099
0.000558015
0.000845717
0.00115445
0.00147761
0.00180792
0.00213686
0.00245524
0.0027531
0.00301993
0.003245
0.00341783
0.00353208
0.00356722
-0.000704785
-0.000688145
-0.000610872
-0.000488158
-0.000319507
-0.000107523
0.000144403
0.000432026
0.000750234
0.00109304
0.00145352
0.00182406
0.00219551
0.00255774
0.00289951
0.00320848
0.0034716
0.00367554
0.00381155
0.00385453
-0.000981814
-0.000964611
-0.000880014
-0.000745259
-0.000559464
-0.000325274
-4.61743e-05
0.000273441
0.000628274
0.00101212
0.00141778
0.00183732
0.00226107
0.00267804
0.00307549
0.00343893
0.00375224
0.00399814
0.00416405
0.00421841
-0.00131599
-0.00129852
-0.00120561
-0.00105702
-0.000851342
-0.000591261
-0.000280386
7.66976e-05
0.000474498
0.000906648
0.0013658
0.00184355
0.00233024
0.00281419
0.0032812
0.00371429
0.00409355
0.00439621
0.00460358
0.00467494
-0.00171414
-0.00169699
-0.00159496
-0.0014308
-0.00120245
-0.000912644
-0.000565181
-0.000164934
0.000282354
0.000770193
0.00129134
0.00183688
0.00239788
0.00296233
0.00351507
0.00403661
0.00450247
0.00488272
0.00514848
0.00524653
-0.00218435
-0.00216856
-0.00205689
-0.00187554
-0.00162165
-0.001298
-0.000908801
-0.000459388
4.4088e-05
0.000594959
0.00118606
0.00180941
0.00245638
0.00311573
0.00377243
0.00440542
0.00498508
0.00547296
0.00582252
0.00596521
-0.00273631
-0.00272354
-0.00260224
-0.00240218
-0.00211966
-0.00175757
-0.00132087
-0.000815787
-0.000249152
0.000372079
0.00104103
0.00175108
0.00249491
0.00326345
0.00404365
0.00481498
0.00554394
0.00618365
0.00665598
0.0068787
-0.0033805
-0.00337393
-0.00324441
-0.00302429
-0.00270965
-0.00230351
-0.00181242
-0.00124419
-0.000606929
9.18742e-05
0.000845784
0.00164953
0.00249871
0.00338863
0.00431124
0.00525047
0.00617213
0.00703005
0.00768563
0.00805961
-0.00413802
-0.00413911
-0.00400247
-0.00375977
-0.00340827
-0.00295031
-0.00239566
-0.001755
-0.00103879
-0.000255577
0.000588685
0.00149045
0.00244876
0.0034667
0.00454555
0.00568067
0.00684183
0.00801524
0.00893754
0.00963424
-0.00496413
-0.0050215
-0.00489191
-0.00463001
-0.00423649
-0.00371502
-0.00308347
-0.00235784
-0.00155271
-0.000678504
0.000259208
0.00125814
0.00232163
0.00346324
0.00469766
0.00604437
0.00748276
0.00912279
0.0104279
0.011805
-0.00615003
-0.00611259
-0.00597879
-0.0056773
-0.00522477
-0.00461818
-0.00388884
-0.00306036
-0.00215334
-0.00118073
-0.00014571
0.000965312
0.00211367
0.00336938
0.00475977
0.00634887
0.00810274
0.010385
0.0121712
0.0148566
-0.00697337
-0.00740011
-0.00725351
-0.00695727
-0.00642537
-0.00569299
-0.00482842
-0.00386864
-0.00284217
-0.00176776
-0.00065924
0.000469008
0.00166515
0.00293827
0.00429136
0.00597399
0.00755433
0.0109085
0.0128298
0.0188258
-0.0094102
-0.00834937
-0.00867914
-0.00817122
-0.00760707
-0.0067885
-0.00581491
-0.00472752
-0.00357265
-0.00237981
-0.00116144
9.31514e-05
0.00141152
0.0028572
0.00437059
0.00627848
0.00816476
0.0123085
0.0150595
0.0243357
-0.0096494
-0.0124177
-0.0115851
-0.0112935
-0.0101978
-0.00881038
-0.00736085
-0.00591552
-0.00450685
-0.00314431
-0.00183755
-0.000583951
0.000549321
0.00177737
0.00207859
0.00435395
0.00257162
0.00928073
0.00645053
0.0277308
-0.0212799
-0.0108059
-0.0114911
-0.0110535
-0.0100236
-0.00883081
-0.00753475
-0.00615197
-0.004752
-0.003374
-0.00204636
-0.00073312
0.000454834
0.00179415
0.00273029
0.00487171
0.00657892
0.0150488
0.028117
0.064924
5.71508e-06
2.02965e-05
7.72548e-05
0.000167106
0.00028934
0.000441465
0.000620333
0.000822129
0.00104238
0.00127597
0.00151724
0.00176002
0.00199773
0.00222356
0.00243067
0.00261239
0.00276256
0.00287571
0.00294908
0.00297087
-9.49593e-06
4.89865e-06
6.22369e-05
0.000152548
0.0002755
0.00042864
0.000608856
0.000812355
0.00103468
0.00127071
0.00151473
0.0017606
0.00200161
0.00223085
0.00244134
0.00262626
0.00277923
0.0028946
0.00296961
0.00299173
-6.78354e-05
-5.34143e-05
5.61793e-06
9.86858e-05
0.000225546
0.000383734
0.000570118
0.00078087
0.00101146
0.0012567
0.00151081
0.00176735
0.00201938
0.00225971
0.00248096
0.00267585
0.00283748
0.00295965
0.00303924
0.00306266
-0.000163586
-0.000148823
-8.69665e-05
1.06818e-05
0.000143992
0.00031048
0.000506974
0.000729578
0.000973664
0.00123389
0.00150424
0.00177808
0.00204806
0.00230647
0.00254531
0.00275654
0.00293242
0.00306585
0.00315306
0.00317894
-0.000299328
-0.000284043
-0.000218214
-0.00011412
2.8263e-05
0.000206417
0.000417113
0.000656361
0.000919394
0.00120068
0.00149393
0.00179219
0.00208759
0.00237175
0.0026358
0.00287064
0.00306727
0.00321721
0.00331568
0.00334534
-0.000477977
-0.00046206
-0.000391121
-0.000278715
-0.000124612
6.86344e-05
0.000297724
0.000558551
0.000846186
0.00115487
0.00147802
0.00180833
0.00213731
0.00245574
0.00275367
0.00302057
0.00324571
0.00341859
0.00353288
0.00356802
-0.000703271
-0.000686701
-0.000609541
-0.000486972
-0.000318479
-0.000106652
0.00014513
0.000432631
0.000750745
0.00109348
0.00145394
0.00182449
0.00219597
0.00255828
0.00290014
0.00320923
0.00347246
0.0036765
0.00381257
0.00385558
-0.000979891
-0.000962782
-0.000878342
-0.000743786
-0.000558211
-0.00032424
-4.53406e-05
0.000274104
0.000628806
0.00101256
0.00141817
0.00183772
0.00226152
0.00267859
0.00307618
0.00343978
0.00375328
0.00399934
0.00416538
0.00421978
-0.00131352
-0.00129618
-0.0012035