/*--------------------------------*- C++ -*----------------------------------*\
  =========                 |
  \\      /  F ield         | OpenFOAM: The Open Source CFD Toolbox
   \\    /   O peration     | Website:  https://openfoam.org
    \\  /    A nd           | Version:  9
     \\/     M anipulation  |
\*---------------------------------------------------------------------------*/
FoamFile
{
    format      ascii;
    class       surfaceScalarField;
    location    "2";
    object      phi;
}
// * * * * * * * * * * * * * * * * * * * * * * * * * * * * * * * * * * * * * //

dimensions      [0 3 -1 0 0 0 0];

internalField   nonuniform List<scalar> 
22800
(
-5.09066e-06
5.11291e-06
-2.34122e-08
-1.1159e-05
6.04241e-06
2.5978e-08
-1.70309e-05
5.83691e-06
3.49547e-08
-2.25003e-05
5.43067e-06
3.87433e-08
-2.74302e-05
4.8924e-06
3.74486e-08
-3.17011e-05
4.23783e-06
3.30987e-08
-3.52094e-05
3.48169e-06
2.65791e-08
-3.78674e-05
2.63968e-06
1.83102e-08
-3.96041e-05
1.72824e-06
8.53094e-09
-4.03663e-05
7.64562e-07
-2.35435e-09
-4.01189e-05
-2.32951e-07
-1.44821e-08
-3.88469e-05
-1.2448e-06
-2.72319e-08
-3.65586e-05
-2.24795e-06
-4.03128e-08
-3.32878e-05
-3.21763e-06
-5.3201e-08
-2.90964e-05
-4.12618e-06
-6.5173e-08
-2.40776e-05
-4.9436e-06
-7.52076e-08
-1.83572e-05
-5.63876e-06
-8.16925e-08
-1.20971e-05
-6.17831e-06
-8.17867e-08
-5.54954e-06
-6.47299e-06
-7.4517e-08
-5.53e-06
-1.95395e-08
-6.25199e-06
1.14439e-05
-7.89668e-08
-1.35999e-05
1.34179e-05
-2.75066e-08
-2.07033e-05
1.29557e-05
-1.53243e-08
-2.73135e-05
1.20477e-05
-6.89926e-09
-3.3264e-05
1.08458e-05
-2.82214e-09
-3.84115e-05
9.38645e-06
-1.18935e-09
-4.26324e-05
7.70361e-06
-1.04859e-09
-4.58234e-05
5.83288e-06
-2.1209e-09
-4.79018e-05
3.81096e-06
-4.39445e-09
-4.88051e-05
1.67594e-06
-8.02667e-09
-4.84957e-05
-5.29754e-07
-1.25676e-08
-4.69533e-05
-2.76934e-06
-1.79483e-08
-4.41896e-05
-4.98756e-06
-2.40624e-08
-4.02445e-05
-7.13219e-06
-3.04897e-08
-3.51913e-05
-9.14277e-06
-3.66069e-08
-2.91402e-05
-1.09532e-05
-4.1459e-08
-2.22413e-05
-1.24943e-05
-4.34209e-08
-1.46889e-05
-1.36912e-05
-3.95088e-08
-6.78589e-06
-1.43469e-05
-2.9155e-08
-1.23449e-05
2.90326e-08
-6.5931e-06
1.81359e-05
-9.89817e-08
-1.43437e-05
2.12141e-05
-4.56929e-08
-2.18305e-05
2.04747e-05
-3.22358e-08
-2.87935e-05
1.90329e-05
-2.22524e-08
-3.50592e-05
1.71281e-05
-1.65348e-08
-4.04794e-05
1.48196e-05
-1.29858e-08
-4.49271e-05
1.21622e-05
-1.0852e-08
-4.82971e-05
9.21273e-06
-9.90907e-09
-5.05047e-05
6.02865e-06
-1.01074e-08
-5.14865e-05
2.66922e-06
-1.14031e-08
-5.11954e-05
-8.06927e-07
-1.39221e-08
-4.96123e-05
-4.33504e-06
-1.7396e-08
-4.67433e-05
-7.83488e-06
-2.17579e-08
-4.26222e-05
-1.12267e-05
-2.65969e-08
-3.73181e-05
-1.44155e-05
-3.13135e-08
-3.09404e-05
-1.7296e-05
-3.49427e-08
-2.36426e-05
-1.97564e-05
-3.57889e-08
-1.56293e-05
-2.16738e-05
-3.06757e-08
-7.22392e-06
-2.27332e-05
-1.90859e-08
-1.96111e-05
4.22902e-08
-7.03088e-06
2.52838e-05
-1.17013e-07
-1.52989e-05
2.95429e-05
-6.07952e-08
-2.32796e-05
2.85016e-05
-4.61007e-08
-3.06964e-05
2.64845e-05
-3.47428e-08
-3.73673e-05
2.38266e-05
-2.7721e-08
-4.31385e-05
2.06136e-05
-2.28441e-08
-4.78806e-05
1.69237e-05
-1.93449e-08
-5.14868e-05
1.28359e-05
-1.70184e-08
-5.38708e-05
8.42849e-06
-1.58564e-08
-5.49659e-05
3.78019e-06
-1.59007e-08
-5.47233e-05
-1.03226e-06
-1.72285e-08
-5.31115e-05
-5.92723e-06
-1.96012e-08
-5.0129e-05
-1.07943e-05
-2.30437e-08
-4.57995e-05
-1.5529e-05
-2.71815e-08
-4.01827e-05
-2.00008e-05
-3.13946e-08
-3.33826e-05
-2.40615e-05
-3.46548e-08
-2.55549e-05
-2.75489e-05
-3.51115e-08
-1.69179e-05
-3.02815e-05
-2.92518e-08
-7.82674e-06
-3.18078e-05
-1.65118e-08
-2.74876e-05
4.97207e-08
-7.64073e-06
3.30611e-05
-1.36519e-07
-1.66263e-05
3.86044e-05
-7.58936e-08
-2.52894e-05
3.72245e-05
-5.9742e-08
-3.33301e-05
3.45721e-05
-4.69198e-08
-4.05545e-05
3.10897e-05
-3.86766e-08
-4.68031e-05
2.68949e-05
-3.26629e-08
-5.19444e-05
2.20932e-05
-2.80811e-08
-5.58715e-05
1.67877e-05
-2.47359e-08
-5.84976e-05
1.10773e-05
-2.26472e-08
-5.97537e-05
5.05819e-06
-2.18981e-08
-5.95858e-05
-1.17753e-06
-2.26003e-08
-5.7949e-05
-7.53959e-06
-2.44538e-08
-5.48282e-05
-1.38876e-05
-2.76131e-08
-5.02302e-05
-2.00953e-05
-3.17337e-08
-4.41982e-05
-2.59967e-05
-3.61545e-08
-3.68244e-05
-3.13956e-05
-3.97398e-08
-2.82639e-05
-3.6069e-05
-4.03944e-08
-1.87515e-05
-3.97599e-05
-3.40833e-08
-8.68822e-06
-4.1851e-05
-2.00741e-08
-3.62293e-05
5.3441e-08
-8.44541e-06
4.1667e-05
-1.60486e-07
-1.8374e-05
4.86269e-05
-9.39119e-08
-2.79287e-05
4.6855e-05
-7.58896e-08
-3.67779e-05
4.34825e-05
-6.12111e-08
-4.47135e-05
3.90768e-05
-5.14805e-08
-5.15707e-05
3.37962e-05
-4.4148e-08
-5.72186e-05
2.77795e-05
-3.83824e-08
-6.15533e-05
2.11564e-05
-3.39978e-08
-6.44907e-05
1.40458e-05
-3.10424e-08
-6.5961e-05
6.55812e-06
-2.96432e-08
-6.59053e-05
-1.20331e-06
-2.9977e-08
-6.426e-05
-9.1533e-06
-3.16075e-08
-6.09901e-05
-1.71226e-05
-3.48864e-08
-5.60766e-05
-2.49692e-05
-3.95221e-08
-4.95342e-05
-3.24943e-05
-4.47994e-08
-4.1432e-05
-3.94483e-05
-4.94331e-08
-3.19164e-05
-4.55336e-05
-5.09748e-08
-2.12391e-05
-5.03926e-05
-4.46184e-08
-9.8632e-06
-5.31976e-05
-2.92963e-08
-4.61467e-05
5.42112e-08
-9.47337e-06
5.1332e-05
-1.91685e-07
-2.06012e-05
5.98721e-05
-1.17453e-07
-3.12794e-05
5.76301e-05
-9.69021e-08
-4.11359e-05
5.34187e-05
-7.96341e-08
-4.99466e-05
4.79553e-05
-6.77902e-08
-5.75444e-05
4.14526e-05
-5.85973e-08
-6.38041e-05
3.40904e-05
-5.12055e-08
-6.86315e-05
2.60292e-05
-4.54479e-08
-7.19508e-05
1.74065e-05
-4.141e-08
-7.36953e-05
8.34184e-06
-3.92835e-08
-7.38031e-05
-1.05615e-06
-3.93608e-08
-7.21864e-05
-1.0729e-05
-4.08883e-08
-6.87821e-05
-2.04823e-05
-4.46265e-08
-6.35317e-05
-3.01693e-05
-5.03349e-08
-5.64039e-05
-3.95649e-05
-5.72755e-08
-4.74246e-05
-4.83636e-05
-6.39709e-08
-3.67144e-05
-5.61763e-05
-6.74874e-08
-2.45355e-05
-6.25097e-05
-6.1898e-08
-1.14318e-05
-6.62557e-05
-4.54895e-08
-5.76296e-05
5.1137e-08
-1.07657e-05
6.23312e-05
-2.33379e-07
-2.33911e-05
7.26469e-05
-1.49459e-07
-3.54549e-05
6.98192e-05
-1.25326e-07
-4.65335e-05
6.46015e-05
-1.04232e-07
-5.63873e-05
5.78983e-05
-8.91547e-08
-6.48532e-05
4.99955e-05
-7.71062e-08
-7.1822e-05
4.11265e-05
-6.72538e-08
-7.722e-05
3.14866e-05
-5.9462e-08
-8.09895e-05
2.12299e-05
-5.38593e-08
-8.30739e-05
1.0477e-05
-5.07448e-08
-8.34146e-05
-6.6474e-07
-5.07e-08
-8.18927e-05
-1.21989e-05
-5.20402e-08
-7.84075e-05
-2.39108e-05
-5.66221e-08
-7.28418e-05
-3.56708e-05
-6.41367e-08
-6.50918e-05
-4.7241e-05
-7.39081e-08
-5.51072e-05
-5.8264e-05
-8.42649e-08
-4.29501e-05
-6.82418e-05
-9.16442e-08
-2.88724e-05
-7.64988e-05
-8.85197e-08
-1.35185e-05
-8.15378e-05
-7.18753e-08
-7.11894e-05
4.13168e-08
-1.23832e-05
7.50047e-05
-2.90276e-07
-2.68633e-05
8.73211e-05
-1.94082e-07
-4.06136e-05
8.37341e-05
-1.64564e-07
-5.31458e-05
7.72713e-05
-1.37547e-07
-6.42091e-05
6.9079e-05
-1.17307e-07
-7.36571e-05
5.95442e-05
-1.00715e-07
-8.14139e-05
4.89703e-05
-8.70131e-08
-8.74436e-05
3.75924e-05
-7.60914e-08
-9.17226e-05
2.5577e-05
-6.80807e-08
-9.42142e-05
1.3032e-05
-6.34285e-08
-9.48802e-05
6.56602e-08
-6.44133e-08
-9.35561e-05
-1.34587e-05
-6.42998e-08
-9.01016e-05
-2.72951e-05
-7.0286e-08
-8.43119e-05
-4.13797e-05
-8.06962e-08
-7.5972e-05
-5.54859e-05
-9.50149e-08
-6.49033e-05
-6.92211e-05
-1.11609e-07
-5.10498e-05
-8.19691e-05
-1.26176e-07
-3.46021e-05
-9.28174e-05
-1.29008e-07
-1.63224e-05
-9.97032e-05
-1.14249e-07
-8.75307e-05
1.88024e-08
-1.4418e-05
8.97925e-05
-3.69827e-07
-3.11924e-05
0.000104353
-2.57765e-07
-4.69801e-05
9.97414e-05
-2.19565e-07
-6.12117e-05
9.16858e-05
-1.82962e-07
-7.36383e-05
8.16598e-05
-1.54236e-07
-8.41532e-05
7.01895e-05
-1.30304e-07
-9.2741e-05
5.76687e-05
-1.1054e-07
-9.94316e-05
4.43778e-05
-9.47977e-08
-0.00010426
3.04884e-05
-8.29803e-08
-0.000107235
1.60811e-05
-7.44738e-08
-0.00010831
1.20612e-06
-6.50098e-08
-0.000107348
-1.43457e-05
-7.46313e-08
-0.000104119
-3.04399e-05
-8.4165e-08
-9.83074e-05
-4.70928e-05
-9.90727e-08
-8.95291e-05
-6.41437e-05
-1.20436e-07
-7.73996e-05
-8.12033e-05
-1.47305e-07
-6.16428e-05
-9.75511e-05
-1.74842e-07
-4.22726e-05
-0.000111997
-1.90723e-07
-2.01765e-05
-0.000121617
-1.82571e-07
-0.000107681
-2.63136e-08
-1.70157e-05
0.000107293
-4.84591e-07
-3.66393e-05
0.000124328
-3.51056e-07
-5.48787e-05
0.000118278
-2.97729e-07
-7.1061e-05
0.000108113
-2.44979e-07
-8.49717e-05
9.57725e-05
-2.01988e-07
-9.65826e-05
8.19665e-05
-1.66128e-07
-0.000105982
6.72051e-05
-1.36872e-07
-0.000113306
5.18154e-05
-1.13951e-07
-0.000118681
3.59608e-05
-9.71656e-08
-0.000122185
1.96715e-05
-8.64502e-08
-0.000123803
2.90702e-06
-8.25746e-08
-0.000123415
-1.46491e-05
-8.53459e-08
-0.000120713
-3.30453e-05
-9.63282e-08
-0.000115241
-5.24477e-05
-1.16873e-07
-0.000106378
-7.28579e-05
-1.48604e-07
-9.34081e-05
-9.39816e-05
-1.91768e-07
-7.56711e-05
-0.000115046
-2.41976e-07
-5.27588e-05
-0.000134624
-2.85174e-07
-2.56705e-05
-0.000148412
-2.93149e-07
-0.000133228
-1.23116e-07
-2.04173e-05
0.000128366
-6.56225e-07
-4.36058e-05
0.000148008
-4.91407e-07
-6.47873e-05
0.00013987
-4.1001e-07
-8.31562e-05
0.000126811
-3.29178e-07
-9.86027e-05
0.000111481
-2.61806e-07
-0.000111242
9.48123e-05
-2.06544e-07
-0.000121331
7.74565e-05
-1.62606e-07
-0.000129165
5.97793e-05
-1.29204e-07
-0.000135014
4.19148e-05
-1.05414e-07
-0.00013906
2.38079e-05
-9.05849e-08
-0.000141359
5.29115e-06
-8.49508e-08
-0.00014182
-1.41011e-05
-8.72556e-08
-0.000140083
-3.46815e-05
-1.00663e-07
-0.000135538
-5.68644e-05
-1.28182e-07
-0.000127263
-8.0959e-05
-1.74143e-07
-0.000114043
-0.000106959
-2.42157e-07
-9.45628e-05
-0.000134196
-3.30389e-07
-6.74989e-05
-0.000161259
-4.29437e-07
-3.39273e-05
-0.00018151
-4.73034e-07
-0.000166832
-3.23211e-07
-2.50244e-05
0.000154322
-9.3082e-07
-5.27119e-05
0.000176407
-7.11641e-07
-7.74202e-05
0.000165151
-5.73088e-07
-9.81512e-05
0.000147983
-4.4127e-07
-0.000115057
0.000128718
-3.31482e-07
-0.000128496
0.000108496
-2.45003e-07
-0.000138986
8.81261e-05
-1.79217e-07
-0.000147065
6.79897e-05
-1.31539e-07
-0.000153203
4.81516e-05
-9.88587e-08
-0.000157738
2.84212e-05
-7.86485e-08
-0.000160834
8.45711e-06
-6.95307e-08
-0.000162478
-1.23861e-05
-7.10774e-08
-0.000162301
-3.47724e-05
-8.63083e-08
-0.000159562
-5.94825e-05
-1.2069e-07
-0.000153008
-8.73294e-05
-1.83278e-07
-0.000140775
-0.000118907
-2.85503e-07
-0.000120499
-0.000154038
-4.33416e-07
-8.89247e-05
-0.000192188
-6.44689e-07
-4.7399e-05
-0.00022227
-7.66062e-07
-0.000213491
-7.40533e-07
-3.17515e-05
0.000187432
-1.35883e-06
-6.50849e-05
0.000210787
-1.04646e-06
-9.39131e-05
0.00019478
-8.0046e-07
-0.000116992
0.000171642
-5.80233e-07
-0.000135039
0.000147162
-3.97736e-07
-0.000148779
0.0001225
-2.63186e-07
-0.000159137
9.86511e-05
-1.67433e-07
-0.000166985
7.59403e-05
-1.0283e-07
-0.000173061
5.42882e-05
-6.06895e-08
-0.000177919
3.33144e-05
-3.50575e-08
-0.000181869
1.24296e-05
-2.19768e-08
-0.000185048
-9.18795e-06
-1.97713e-08
-0.000187172
-3.26154e-05
-3.21116e-08
-0.000187464
-5.91228e-05
-6.76806e-08
-0.000184399
-9.02523e-05
-1.42468e-07
-0.000175365
-0.00012766
-2.81385e-07
-0.000156692
-0.000172204
-5.07129e-07
-0.000121044
-0.000226901
-9.35069e-07
-7.02737e-05
-0.000271837
-1.20369e-06
-0.000282128
-1.63649e-06
-4.04858e-05
0.000230316
-2.39805e-06
-8.15808e-05
0.00025356
-1.67787e-06
-0.000115661
0.000230011
-1.15108e-06
-0.000140945
0.000197662
-7.34756e-07
-0.000159445
0.000166081
-4.19677e-07
-0.000172582
0.000135853
-2.15478e-07
-0.000181923
0.000108077
-8.53719e-08
-0.000188788
8.28104e-05
-5.47146e-09
-0.00019423
5.96937e-05
3.63308e-08
-0.000199053
3.80767e-05
6.13314e-08
-0.000203785
1.70854e-05
7.55251e-08
-0.000208802
-4.25089e-06
8.0663e-08
-0.000214029
-2.74753e-05
8.68038e-08
-0.000218899
-5.43263e-05
7.37495e-08
-0.000221915
-8.726e-05
2.29685e-08
-0.000219688
-0.000129758
-1.29102e-07
-0.00020798
-0.000183491
-4.20881e-07
-0.000170259
-0.000263358
-1.26413e-06
-0.000111638
-0.000328678
-1.77958e-06
-0.000390166
-3.59981e-06
-6.33524e-05
0.000296855
-3.18661e-06
-0.000108967
0.000301562
-2.38771e-06
-0.000146679
0.000269159
-1.43628e-06
-0.000172216
0.00022397
-7.70817e-07
-0.000189468
0.000183601
-2.67567e-07
-0.000200413
0.000146789
8.3444e-09
-0.000207362
0.000114872
1.54653e-07
-0.000212133
8.73597e-05
2.2153e-07
-0.000216113
6.34232e-05
2.49827e-07
-0.000220367
4.2068e-05
2.63422e-07
-0.000225742
2.21843e-05
2.76165e-07
-0.000232459
2.16326e-06
3.0263e-07
-0.000241609
-1.86767e-05
3.51033e-07
-0.000252918
-4.34146e-05
3.97865e-07
-0.000265721
-7.48849e-05
4.27442e-07
-0.000275604
-0.000120211
3.3709e-07
-0.000279919
-0.000179355
1.79268e-07
-0.000249058
-0.000292937
-1.28214e-06
-0.000188993
-0.000386913
-1.83085e-06
-0.00057188
-7.2792e-06
-6.88819e-05
0.000373232
-7.49513e-06
-0.000135834
0.000372081
-3.56693e-06
-0.000184414
0.000319624
-1.88454e-06
-0.000211713
0.000251629
-3.59666e-07
-0.00022596
0.000197442
4.05287e-07
-0.000232382
0.000152528
6.84667e-07
-0.00023492
0.000116651
7.5872e-07
-0.000236035
8.77385e-05
7.36225e-07
-0.000237342
6.40391e-05
6.91486e-07
-0.000239941
4.40026e-05
6.64176e-07
-0.000244736
2.63004e-05
6.78633e-07
-0.00025311
9.78644e-06
7.51621e-07
-0.000265576
-7.08268e-06
8.71286e-07
-0.000282639
-2.75007e-05
1.14961e-06
-0.000307585
-5.16079e-05
1.66833e-06
-0.000333238
-9.66846e-05
2.127e-06
-0.000372332
-0.00014358
3.31809e-06
-0.000364936
-0.000301292
9.59452e-07
-0.000325353
-0.000427944
1.44806e-06
-0.000884374
-1.28583e-05
-0.000178991
0.000563725
-1.15017e-05
-0.000220892
0.000422787
-8.80535e-06
-0.000250337
0.000351487
-2.41818e-06
-0.000264444
0.000266081
-3.45999e-07
-0.000265493
0.000197197
1.29417e-06
-0.000261409
0.000146663
1.78047e-06
-0.000255614
0.000109011
1.84494e-06
-0.000250206
8.06382e-05
1.69222e-06
-0.000246728
5.90655e-05
1.49612e-06
-0.000246382
4.23177e-05
1.33849e-06
-0.000250324
2.89784e-05
1.26471e-06
-0.000259629
1.77839e-05
1.3067e-06
-0.000276443
8.14967e-06
1.58247e-06
-0.000302924
-3.12962e-06
2.10907e-06
-0.000345647
-1.20726e-05
3.18822e-06
-0.000399186
-4.75323e-05
4.38689e-06
-0.000469061
-8.16566e-05
7.95115e-06
-0.000493603
-0.000283454
6.70465e-06
-0.000419362
-0.00051399
1.18039e-05
-0.00129012
-1.36168e-05
-0.000356753
0.000942616
-2.21388e-05
-0.000339262
0.000401766
3.52963e-06
-0.000298307
0.000305062
5.47052e-06
-0.000244972
0.000203105
9.64144e-06
-0.000192124
0.000135082
9.26702e-06
-0.000147167
9.4112e-05
7.59394e-06
-0.000111906
6.77956e-05
5.95402e-06
-8.54603e-05
4.95857e-05
4.60706e-06
-6.65124e-05
3.64852e-05
3.63237e-06
-5.39507e-05
2.6748e-05
3.008e-06
-4.70374e-05
1.9329e-05
2.736e-06
-4.50969e-05
1.30384e-05
2.80494e-06
-4.86236e-05
8.11538e-06
3.561e-06
-5.74744e-05
1.22851e-06
4.49272e-06
-6.94946e-05
-9.16583e-06
9.1134e-06
-9.37497e-05
-3.40131e-05
1.07359e-05
-0.000106491
-9.66197e-05
2.77045e-05
-0.000152422
-0.000260841
2.33168e-05
-0.00011944
-0.000593755
4.67839e-05
-0.00138382
-2.57413e-05
0.000978464
-3.58473e-05
0.00140328
-2.30489e-05
0.00171909
-1.07485e-05
0.00192197
2.28827e-07
0.00205212
4.93114e-06
0.00214014
6.09133e-06
0.00220199
5.94376e-06
0.0022464
5.17288e-06
0.00227861
4.27826e-06
0.00230184
3.51484e-06
0.00231807
3.10029e-06
0.00232839
2.71708e-06
0.00233305
3.46204e-06
0.00233118
3.09749e-06
0.00231454
7.47418e-06
0.00227327
7.25598e-06
0.00215981
1.68333e-05
0.00187871
2.02623e-05
0.00129206
-7.10244e-06
-9.17593e-05
-6.08728e-06
6.09412e-06
-3.02516e-08
-1.33294e-05
7.26764e-06
4.21498e-10
-2.03238e-05
7.02112e-06
8.2855e-09
-2.68245e-05
6.52629e-06
1.31374e-08
-3.26729e-05
5.87155e-06
1.43364e-08
-3.77297e-05
5.07684e-06
1.30207e-08
-4.18734e-05
4.1605e-06
9.786e-09
-4.5002e-05
3.14196e-06
4.97965e-09
-4.70338e-05
2.04154e-06
-1.23356e-09
-4.79074e-05
8.80385e-07
-9.13516e-09
-4.7585e-05
-3.19567e-07
-1.73406e-08
-4.60514e-05
-1.5344e-06
-2.64045e-08
-4.33191e-05
-2.73679e-06
-3.58514e-08
-3.94299e-05
-3.89725e-06
-4.51448e-08
-3.44584e-05
-4.98303e-06
-5.36126e-08
-2.85145e-05
-5.95879e-06
-6.03598e-08
-2.17442e-05
-6.78786e-06
-6.41292e-08
-1.43324e-05
-7.4305e-06
-6.30438e-08
-6.57658e-06
-7.77365e-06
-5.67056e-08
-6.57368e-06
-2.24405e-08
-7.55152e-06
1.36333e-05
-6.65944e-08
-1.64001e-05
1.61251e-05
-3.63905e-08
-2.49392e-05
1.55707e-05
-2.57856e-08
-3.28683e-05
1.4466e-05
-1.75152e-08
-3.99927e-05
1.30056e-05
-1.25318e-08
-4.6143e-05
1.12357e-05
-9.77806e-09
-5.11733e-05
9.19845e-06
-8.70443e-09
-5.49623e-05
6.93792e-06
-9.06359e-09
-5.74136e-05
4.49925e-06
-1.07279e-08
-5.84562e-05
1.92852e-06
-1.3594e-08
-5.80482e-05
-7.22791e-07
-1.73755e-08
-5.61696e-05
-3.40884e-06
-2.2085e-08
-5.28375e-05
-6.06548e-06
-2.74265e-08
-4.81023e-05
-8.63008e-06
-3.29341e-08
-4.20528e-05
-1.10311e-05
-3.79694e-08
-3.48208e-05
-1.31906e-05
-4.16386e-08
-2.65822e-05
-1.50273e-05
-4.26352e-08
-1.75614e-05
-1.64518e-05
-3.89742e-08
-8.11828e-06
-1.72155e-05
-3.04785e-08
-1.46695e-05
6.56213e-09
-7.97451e-06
2.15928e-05
-8.3993e-08
-1.7319e-05
2.54768e-05
-5.29322e-08
-2.63293e-05
2.45898e-05
-4.09423e-08
-3.46904e-05
2.28362e-05
-3.13757e-08
-4.21992e-05
2.05229e-05
-2.50134e-08
-4.86802e-05
1.77244e-05
-2.06076e-08
-5.39839e-05
1.4509e-05
-1.77199e-08
-5.79865e-05
1.09467e-05
-1.61778e-08
-6.05897e-05
7.1083e-06
-1.59103e-08
-6.17216e-05
3.06586e-06
-1.68381e-08
-6.13298e-05
-1.1096e-06
-1.89543e-08
-5.93958e-05
-5.33818e-06
-2.20968e-08
-5.59301e-05
-9.52691e-06
-2.60139e-08
-5.09767e-05
-1.35798e-05
-3.02692e-08
-4.46202e-05
-1.73846e-05
-3.42334e-08
-3.69913e-05
-2.08175e-05
-3.69886e-08
-2.82705e-05
-2.37467e-05
-3.7159e-08
-1.86939e-05
-2.60264e-05
-3.26228e-08
-8.64594e-06
-2.72593e-05
-2.32423e-08
-2.32886e-05
1.54357e-08
-8.50999e-06
3.00873e-05
-1.0159e-07
-1.84836e-05
3.54588e-05
-6.91876e-08
-2.80928e-05
3.42087e-05
-5.58953e-08
-3.70019e-05
3.17554e-05
-4.47473e-08
-4.49977e-05
2.85277e-05
-3.67717e-08
-5.18986e-05
2.46333e-05
-3.07941e-08
-5.75521e-05
2.01695e-05
-2.63452e-08
-6.18329e-05
1.52338e-05
-2.32718e-08
-6.46414e-05
9.9225e-06
-2.15446e-08
-6.59019e-05
4.33161e-06
-2.11668e-08
-6.55602e-05
-1.44634e-06
-2.21356e-08
-6.35844e-05
-7.30932e-06
-2.42542e-08
-5.99764e-05
-1.31307e-05
-2.73619e-08
-5.47683e-05
-1.8784e-05
-3.10412e-08
-4.80343e-05
-2.41154e-05
-3.46386e-08
-3.98992e-05
-2.89502e-05
-3.71642e-08
-3.0546e-05
-3.30979e-05
-3.70972e-08
-2.02265e-05
-3.63431e-05
-3.20636e-08
-9.36275e-06
-3.81177e-05
-2.19034e-08
-3.26213e-05
1.96759e-08
-9.25537e-06
3.93279e-05
-1.21657e-07
-2.01009e-05
4.63156e-05
-8.71054e-08
-3.05367e-05
4.4657e-05
-7.21611e-08
-4.01985e-05
4.14294e-05
-5.92016e-08
-4.88589e-05
3.71989e-05
-4.9505e-08
-5.63299e-05
3.21134e-05
-4.18618e-08
-6.24567e-05
2.63041e-05
-3.58286e-08
-6.71147e-05
1.98983e-05
-3.1294e-08
-7.02043e-05
1.30177e-05
-2.82745e-08
-7.16475e-05
5.77969e-06
-2.68165e-08
-7.13843e-05
-1.70522e-06
-2.69531e-08
-6.9368e-05
-9.32151e-06
-2.84795e-08
-6.55851e-05
-1.69099e-05
-3.13119e-08
-6.00484e-05
-2.43174e-05
-3.5036e-08
-5.28131e-05
-3.13478e-05
-3.89499e-08
-4.39909e-05
-3.77702e-05
-4.19424e-08
-3.37641e-05
-4.33228e-05
-4.22594e-08
-2.24033e-05
-4.77008e-05
-3.71165e-08
-1.0385e-05
-5.01298e-05
-2.62129e-08
-4.29727e-05
1.98236e-08
-1.02395e-05
4.95535e-05
-1.46671e-07
-2.22315e-05
5.83228e-05
-1.09116e-07
-3.37474e-05
5.61889e-05
-9.19478e-08
-4.43842e-05
5.20816e-05
-7.65717e-08
-5.38982e-05
4.6726e-05
-6.46217e-08
-6.20952e-05
4.03212e-05
-5.48659e-08
-6.88219e-05
3.30394e-05
-4.69045e-08
-7.39582e-05
2.50413e-05
-4.06767e-08
-7.74083e-05
1.64731e-05
-3.62483e-08
-7.90941e-05
7.46956e-06
-3.37149e-08
-7.89499e-05
-1.84623e-06
-3.31642e-08
-7.69091e-05
-1.13596e-05
-3.43618e-08
-7.29347e-05
-2.08818e-05
-3.73289e-08
-6.701e-05
-3.024e-05
-4.167e-08
-5.91575e-05
-3.91984e-05
-4.66223e-08
-4.94626e-05
-4.74637e-05
-5.09083e-08
-3.80976e-05
-5.46863e-05
-5.24327e-08
-2.53524e-05
-6.04429e-05
-4.77871e-08
-1.1777e-05
-6.36981e-05
-3.63578e-08
-5.47114e-05
1.58854e-08
-1.1498e-05
6.10392e-05
-1.79355e-07
-2.49489e-05
7.17941e-05
-1.37837e-07
-3.78266e-05
6.90873e-05
-1.17547e-07
-4.96783e-05
6.39524e-05
-9.87219e-08
-6.02419e-05
5.73054e-05
-8.35436e-08
-6.93213e-05
4.94128e-05
-7.0801e-08
-7.67713e-05
4.04983e-05
-6.01783e-08
-8.24841e-05
3.07604e-05
-5.16859e-08
-8.63753e-05
2.03683e-05
-4.54482e-08
-8.83712e-05
9.46779e-06
-4.16208e-08
-8.84025e-05
-1.81386e-06
-4.03705e-08
-8.63766e-05
-1.33851e-05
-4.13801e-08
-8.22235e-05
-2.50347e-05
-4.48622e-08
-7.58809e-05
-3.65825e-05
-5.04684e-08
-6.73182e-05
-4.7761e-05
-5.73906e-08
-5.65712e-05
-5.82105e-05
-6.41509e-08
-4.37828e-05
-6.7474e-05
-6.81822e-08
-2.92545e-05
-7.49679e-05
-6.51429e-08
-1.3632e-05
-7.93124e-05
-5.37912e-08
-6.82991e-05
6.81683e-09
-1.30825e-05
7.41115e-05
-2.23183e-07
-2.8357e-05
8.70957e-05
-1.76521e-07
-4.29151e-05
8.36717e-05
-1.5167e-07
-5.62408e-05
7.73016e-05
-1.27708e-07
-6.80547e-05
6.91378e-05
-1.07679e-07
-7.81669e-05
5.95383e-05
-9.04904e-08
-8.6453e-05
4.87932e-05
-7.59795e-08
-9.28314e-05
3.71436e-05
-6.42516e-08
-9.72407e-05
2.47792e-05
-5.54899e-08
-9.96208e-05
1.1847e-05
-4.99134e-08
-9.99043e-05
-1.5332e-06
-4.78163e-08
-9.79665e-05
-1.53262e-05
-4.86716e-08
-9.36925e-05
-2.93123e-05
-5.30856e-08
-8.69518e-05
-4.33265e-05
-6.07806e-08
-7.763e-05
-5.70858e-05
-7.09814e-08
-6.56748e-05
-7.01679e-05
-8.20226e-08
-5.11618e-05
-8.19879e-05
-9.07291e-08
-3.43802e-05
-9.17466e-05
-9.1385e-08
-1.60951e-05
-9.75879e-05
-8.14485e-08
-8.43414e-05
-1.15067e-08
-1.5069e-05
8.91734e-05
-2.83171e-07
-3.26049e-05
0.000104667
-2.2975e-07
-4.92096e-05
0.00010031
-1.97935e-07
-6.42883e-05
9.24088e-05
-1.6605e-07
-7.75503e-05
8.2421e-05
-1.38516e-07
-8.88284e-05
7.08302e-05
-1.14548e-07
-9.80403e-05
5.80123e-05
-9.42359e-08
-0.000105152
4.42573e-05
-7.77887e-08
-0.000110145
2.97695e-05
-6.53934e-08
-0.000112986
1.4682e-05
-5.72592e-08
-0.000113623
-9.0736e-07
-5.39408e-08
-0.000111892
-1.70669e-05
-5.4624e-08
-0.000107622
-3.35917e-05
-6.04973e-08
-0.000100584
-5.03739e-05
-7.13449e-08
-9.05342e-05
-6.71441e-05
-8.6664e-08
-7.72712e-05
-8.34378e-05
-1.04765e-07
-6.07345e-05
-9.8529e-05
-1.21791e-07
-4.11416e-05
-0.000111338
-1.30115e-07
-1.93987e-05
-0.000119321
-1.24558e-07
-0.000103676
-4.54508e-08
-1.75723e-05
0.000106743
-3.67043e-07
-3.7909e-05
0.000125051
-3.04386e-07
-5.69876e-05
0.00011943
-2.61407e-07
-7.41149e-05
0.00010957
-2.16921e-07
-8.90063e-05
9.73357e-05
-1.77537e-07
-0.000101546
8.33831e-05
-1.43124e-07
-0.00011173
6.8199e-05
-1.14138e-07
-0.000119603
5.21273e-05
-9.0839e-08
-0.00012522
3.53764e-05
-7.3228e-08
-0.000128595
1.80429e-05
-6.10447e-08
-0.00012971
1.96443e-07
-5.35377e-08
-0.000128362
-1.84329e-05
-5.62458e-08
-0.000124319
-3.76548e-05
-6.44241e-08
-0.000117213
-5.74993e-05
-7.96751e-08
-0.000106604
-7.77705e-05
-1.02534e-07
-9.2052e-05
-9.80054e-05
-1.3184e-07
-7.324e-05
-0.000117353
-1.63219e-07
-5.01808e-05
-0.000134402
-1.86743e-07
-2.39319e-05
-0.00014556
-1.91554e-07
-0.000127529
-1.04621e-07
-2.07725e-05
0.000127518
-4.87255e-07
-4.45922e-05
0.00014893
-4.11083e-07
-6.66482e-05
0.000141538
-3.49281e-07
-8.6125e-05
0.000129086
-2.84194e-07
-0.000102785
0.00011402
-2.2582e-07
-0.000116614
9.72214e-05
-1.75274e-07
-0.000127737
7.93187e-05
-1.3343e-07
-0.000136333
6.07096e-05
-1.00413e-07
-0.000142568
4.15895e-05
-7.58749e-08
-0.000146543
2.19914e-05
-5.93109e-08
-0.000148252
1.87354e-06
-5.07227e-08
-0.00014755
-1.91689e-05
-5.10792e-08
-0.000144087
-4.11536e-05
-6.06248e-08
-0.000137333
-6.42889e-05
-8.10792e-08
-0.000126572
-8.85663e-05
-1.14225e-07
-0.000110978
-0.000113631
-1.60496e-07
-8.97889e-05
-0.000138568
-2.15866e-07
-6.25271e-05
-0.00016168
-2.6874e-07
-3.03858e-05
-0.000177699
-2.95612e-07
-0.000157828
-2.10244e-07
-2.4965e-05
0.000152491
-6.64381e-07
-5.31476e-05
0.000177188
-5.66548e-07
-7.8776e-05
0.000167228
-4.7159e-07
-0.000100881
0.000151234
-3.72066e-07
-0.000119362
0.000132522
-2.82948e-07
-0.000134388
0.000112248
-2.07577e-07
-0.000146294
9.12092e-05
-1.46958e-07
-0.000155459
6.98455e-05
-1.00563e-07
-0.000162218
4.83108e-05
-6.69764e-08
-0.000166803
2.65296e-05
-4.45993e-08
-0.000169281
4.2997e-06
-3.2941e-08
-0.000169547
-1.89586e-05
-3.09439e-08
-0.00016718
-4.35805e-05
-4.10749e-08
-0.000161465
-7.0065e-05
-6.67002e-08
-0.000151332
-9.87614e-05
-1.12519e-07
-0.000135377
-0.000129646
-1.82696e-07
-0.000112074
-0.000161925
-2.76435e-07
-7.98835e-05
-0.000193914
-3.85006e-07
-4.00846e-05
-0.000217515
-4.56131e-07
-0.000197839
-3.96965e-07
-3.06315e-05
0.000183129
-9.37093e-07
-6.43275e-05
0.000210971
-7.98984e-07
-9.42354e-05
0.000197205
-6.42221e-07
-0.000119173
0.000176214
-4.83676e-07
-0.000139368
0.00015273
-3.44377e-07
-0.000155299
0.000128166
-2.31258e-07
-0.000167632
0.000103507
-1.44168e-07
-0.000177039
7.92018e-05
-8.05567e-08
-0.000184103
5.53119e-05
-3.62778e-08
-0.000189234
3.159e-05
-7.71221e-09
-0.00019263
7.61626e-06
1.01983e-08
-0.000194267
-1.74092e-05
1.64273e-08
-0.000193704
-4.42363e-05
6.53775e-09
-0.000190068
-7.38004e-05
-2.19222e-08
-0.000181893
-0.00010704
-7.90942e-08
-0.000167016
-0.000144629
-1.79037e-07
-0.000142696
-0.00018635
-3.28875e-07
-0.00010516
-0.000231553
-5.4161e-07
-5.59665e-05
-0.000266775
-6.98805e-07
-0.000253797
-7.49146e-07
-3.88647e-05
0.000221989
-1.35439e-06
-7.94969e-05
0.000251698
-1.14142e-06
-0.000114391
0.000232172
-8.73028e-07
-0.000142128
0.000203986
-6.15418e-07
-0.000163631
0.00017423
-3.9506e-07
-0.000179851
0.000144349
-2.26511e-07
-0.000191958
0.000115551
-1.048e-07
-0.000201036
8.81997e-05
-2.24307e-08
-0.00020799
6.21701e-05
3.53722e-08
-0.000213484
3.69748e-05
7.4099e-08
-0.000217881
1.18928e-05
9.87277e-08
-0.000221324
-1.40984e-05
1.12522e-07
-0.000223464
-4.2242e-05
1.12624e-07
-0.000223366
-7.40547e-05
8.92999e-08
-0.000219239
-0.000111332
2.21335e-08
-0.00020805
-0.000155994
-1.05294e-07
-0.00018553
-0.000209053
-3.231e-07
-0.000143219
-0.000274077
-7.22753e-07
-8.31985e-05
-0.000326969
-1.03064e-06
-0.000337194
-1.43756e-06
-4.93217e-05
0.000271118
-2.2056e-06
-9.95593e-05
0.000301974
-1.71542e-06
-0.000140848
0.00027351
-1.19997e-06
-0.000171224
0.000234379
-7.52429e-07
-0.00019319
0.000196174
-3.97374e-07
-0.000208598
0.000159694
-1.52096e-07
-0.000219412
0.000126272
7.11513e-09
-0.000227264
9.59315e-05
1.14513e-07
-0.000233439
6.82028e-05
1.79141e-07
-0.000238894
4.22697e-05
2.21033e-07
-0.000244243
1.70661e-05
2.51883e-07
-0.000249879
-8.66178e-06
2.79191e-07
-0.000255711
-3.66263e-05
3.04014e-07
-0.000261019
-6.89859e-05
3.12754e-07
-0.00026403
-0.000108577
2.78556e-07
-0.000260814
-0.000159482
1.42597e-07
-0.000246458
-0.000223692
-1.38952e-07
-0.00020206
-0.000318866
-8.72431e-07
-0.000133036
-0.000396357
-1.41609e-06
-0.000471013
-2.81701e-06
-7.67971e-05
0.000347725
-2.9961e-06
-0.000132833
0.000358013
-2.39116e-06
-0.00017841
0.000319156
-1.50507e-06
-0.000209051
0.000265047
-7.97976e-07
-0.000229423
0.000216533
-2.54703e-07
-0.000242105
0.000172304
7.97896e-08
-0.000249982
0.000134026
2.76761e-07
-0.000255293
0.000101084
3.79988e-07
-0.000259719
7.24448e-05
4.33993e-07
-0.000264521
4.68666e-05
4.6872e-07
-0.00027065
2.29681e-05
5.0334e-07
-0.000278432
-1.12999e-06
5.52478e-07
-0.000288961
-2.63703e-05
6.24336e-07
-0.000301888
-5.63647e-05
7.03263e-07
-0.000316431
-9.43641e-05
7.58823e-07
-0.000327478
-0.000148783
6.84168e-07
-0.000332089
-0.00021937
4.69148e-07
-0.000296799
-0.000354654
-7.84326e-07
-0.000226774
-0.000466735
-1.47759e-06
-0.000699767
-5.2994e-06
-8.13457e-05
0.000427551
-5.97566e-06
-0.000164626
0.000441192
-3.46515e-06
-0.000223577
0.000378155
-1.93252e-06
-0.000256541
0.000298229
-5.77453e-07
-0.000273347
0.000233484
2.59967e-07
-0.00028052
0.000179521
6.40175e-07
-0.000283022
0.000136481
8.0622e-07
-0.00028391
0.000101854
8.54404e-07
-0.000285143
7.35096e-05
8.58902e-07
-0.000288028
4.95495e-05
8.66965e-07
-0.000293629
2.8335e-05
9.12017e-07
-0.000303478
8.45152e-06
1.01927e-06
-0.000318008
-1.21734e-05
1.20408e-06
-0.000337816
-3.69061e-05
1.49961e-06
-0.00036676
-6.57105e-05
1.95843e-06
-0.000396379
-0.000119333
2.29632e-06
-0.000441444
-0.00017402
3.0335e-06
-0.000434568
-0.000361566
9.9547e-07
-0.000384595
-0.000515994
7.3439e-07
-0.00108819
-9.02672e-06
-0.000203637
0.000628549
-8.86202e-06
-0.000261569
0.000497156
-6.83795e-06
-0.000300944
0.000417525
-2.41369e-06
-0.000319758
0.000317212
-5.15013e-07
-0.000320934
0.000235027
9.26646e-07
-0.00031539
0.000174267
1.49143e-06
-0.000307639
0.000128907
1.66813e-06
-0.000300451
9.47278e-05
1.63067e-06
-0.000295741
6.87663e-05
1.52899e-06
-0.0002949
4.86e-05
1.4473e-06
-0.000299225
3.24878e-05
1.43714e-06
-0.000309812
1.88103e-05
1.53458e-06
-0.000329187
6.97798e-06
1.80606e-06
-0.000359599
-6.62402e-06
2.23896e-06
-0.00040823
-1.69328e-05
3.04197e-06
-0.00046745
-5.95307e-05
3.804e-06
-0.000541533
-9.77274e-05
5.74172e-06
-0.000563262
-0.000337258
4.12462e-06
-0.00045508
-0.000618297
5.92544e-06
-0.0015458
-1.10879e-05
-0.00045079
0.00107181
-1.46122e-05
-0.00043211
0.00048198
2.55792e-08
-0.000382419
0.000371335
1.96941e-06
-0.000311843
0.000250993
5.28533e-06
-0.000241603
0.000168338
5.71608e-06
-0.000181752
0.000116906
5.10373e-06
-0.000134725
8.35277e-05
4.3067e-06
-9.94586e-05
6.05111e-05
3.55703e-06
-7.412e-05
4.40831e-05
2.977e-06
-5.70834e-05
3.19659e-05
2.60554e-06
-4.7199e-05
2.28596e-05
2.47982e-06
-4.32775e-05
1.50653e-05
2.62848e-06
-4.52998e-05
9.28938e-06
3.27188e-06
-5.26237e-05
1.02767e-06
4.16501e-06
-5.78067e-05
-1.01308e-05
7.49436e-06
-7.74283e-05
-3.77995e-05
8.6263e-06
-5.96428e-05
-0.000107063
1.92547e-05
-9.90404e-05
-0.000289854
1.53109e-05
-1.75239e-05
-0.000680322
2.72926e-05
-0.00156994
-1.91254e-05
0.00105976
-2.37992e-05
0.00153554
-1.68419e-05
0.00190512
-8.99928e-06
0.00215783
-1.48324e-06
0.00232864
2.45293e-06
0.00244775
3.89609e-06
0.00253301
4.20839e-06
0.00259477
3.92598e-06
0.00263969
3.43553e-06
0.00267221
2.96264e-06
0.00269547
2.69733e-06
0.00271077
2.4835e-06
0.0027205
3.01991e-06
0.00272169
2.93503e-06
0.00271325
5.78846e-06
0.00267705
5.65864e-06
0.00257534
1.14738e-05
0.00229306
1.26871e-05
0.0016077
-2.0592e-06
-5.40041e-05
-6.1465e-06
6.14904e-06
-3.27933e-08
-1.34658e-05
7.34124e-06
-2.15533e-08
-2.05349e-05
7.09251e-06
-1.50744e-08
-2.71041e-05
6.59232e-06