/*--------------------------------*- C++ -*----------------------------------*\
  =========                 |
  \\      /  F ield         | OpenFOAM: The Open Source CFD Toolbox
   \\    /   O peration     | Website:  https://openfoam.org
    \\  /    A nd           | Version:  9
     \\/     M anipulation  |
\*---------------------------------------------------------------------------*/
FoamFile
{
    format      ascii;
    class       volVectorField;
    location    "2";
    object      U;
}
// * * * * * * * * * * * * * * * * * * * * * * * * * * * * * * * * * * * * * //

dimensions      [0 1 -1 0 0 0 0];

internalField   nonuniform List<vector> 
8000
(
(-0.00023943 0.000237304 -1.45415e-06)
(-0.000800706 0.000281916 2.72898e-06)
(-0.00141588 0.000272442 3.39988e-06)
(-0.0019836 0.000253618 3.62904e-06)
(-0.00250534 0.000228655 3.45148e-06)
(-0.00296692 0.000198256 3.03782e-06)
(-0.00335714 0.000163082 2.46064e-06)
(-0.00366646 0.00012385 1.75377e-06)
(-0.00388696 8.13181e-05 9.3585e-07)
(-0.00401241 3.62951e-05 1.55629e-08)
(-0.0040384 -1.03291e-05 -9.58394e-07)
(-0.00396238 -5.77147e-05 -1.98322e-06)
(-0.00378402 -0.000104714 -3.03338e-06)
(-0.00350537 -0.000150151 -4.06923e-06)
(-0.00313118 -0.000192718 -5.03685e-06)
(-0.00266917 -0.000231003 -5.85887e-06)
(-0.00213025 -0.000263549 -6.40823e-06)
(-0.00153037 -0.000288808 -6.452e-06)
(-0.000871111 -0.000302597 -5.88138e-06)
(-0.000262298 -0.000257364 -1.31049e-06)
(-0.00029544 0.000807624 -6.01748e-06)
(-0.00097958 0.000950544 -1.69947e-06)
(-0.00172331 0.000918063 -7.61283e-07)
(-0.00241003 0.000854023 -1.56127e-07)
(-0.00304035 0.000769178 1.05391e-07)
(-0.00359721 0.000666049 1.94531e-07)
(-0.00406721 0.000546985 1.70758e-07)
(-0.00443907 0.000414478 5.45398e-08)
(-0.00470347 0.000271128 -1.45366e-07)
(-0.00485316 0.000119631 -4.24587e-07)
(-0.00488315 -3.7219e-05 -7.70962e-07)
(-0.00479049 -0.000196136 -1.17943e-06)
(-0.00457473 -0.000353651 -1.64452e-06)
(-0.00423841 -0.000505905 -2.13668e-06)
(-0.00378714 -0.000648568 -2.61131e-06)
(-0.00323002 -0.000776939 -2.99753e-06)
(-0.00258003 -0.000886127 -3.16805e-06)
(-0.00185618 -0.000970873 -2.8786e-06)
(-0.0010614 -0.00101722 -2.04848e-06)
(-0.000322051 -0.000872313 2.81192e-06)
(-0.000311476 0.00147396 -7.55436e-06)
(-0.00103314 0.00172545 -3.08086e-06)
(-0.0018175 0.0016657 -2.0426e-06)
(-0.00254105 0.00154877 -1.31961e-06)
(-0.00320488 0.00139409 -9.33998e-07)
(-0.00379118 0.0012064 -7.08101e-07)
(-0.0042862 0.000990122 -5.80474e-07)
(-0.00467835 0.000749834 -5.33705e-07)
(-0.00495817 0.000490254 -5.64074e-07)
(-0.00511829 0.000216218 -6.68127e-07)
(-0.00515315 -6.72541e-05 -8.57262e-07)
(-0.00505943 -0.000354561 -1.11524e-06)
(-0.00483644 -0.000639542 -1.4401e-06)
(-0.00448612 -0.000915325 -1.80361e-06)
(-0.00401354 -0.00117416 -2.16365e-06)
(-0.00342753 -0.00140752 -2.44923e-06)
(-0.00274115 -0.00160642 -2.5281e-06)
(-0.00197426 -0.00176111 -2.14085e-06)
(-0.00112981 -0.00184623 -1.20998e-06)
(-0.000342909 -0.0015913 3.91709e-06)
(-0.000332084 0.00216331 -8.85942e-06)
(-0.0011019 0.00252843 -4.13326e-06)
(-0.00193851 0.00243991 -3.00489e-06)
(-0.00270947 0.00226786 -2.18616e-06)
(-0.00341634 0.00204077 -1.71295e-06)
(-0.00404049 0.0017658 -1.39851e-06)
(-0.00456777 0.00144955 -1.17845e-06)
(-0.00498644 0.00109875 -1.03613e-06)
(-0.00528688 0.000720186 -9.71157e-07)
(-0.00546151 0.000320732 -9.87407e-07)
(-0.00550454 -9.24761e-05 -1.09238e-06)
(-0.00541192 -0.000512025 -1.26988e-06)
(-0.00518197 -0.000929108 -1.52594e-06)
(-0.00481572 -0.0013339 -1.83527e-06)
(-0.00431721 -0.00171518 -2.15477e-06)
(-0.00369449 -0.00206035 -2.40929e-06)
(-0.00296039 -0.00235582 -2.45524e-06)
(-0.00213575 -0.0025866 -2.00695e-06)
(-0.00122383 -0.00271479 -9.81389e-07)
(-0.000371721 -0.00234464 4.5562e-06)
(-0.000360853 0.00290675 -1.02382e-05)
(-0.00119761 0.00339456 -5.13534e-06)
(-0.00210653 0.00327428 -3.90477e-06)
(-0.00294284 0.00304212 -2.99057e-06)
(-0.0037087 0.0027366 -2.44352e-06)
(-0.00438441 0.00236775 -2.06218e-06)
(-0.00495547 0.00194467 -1.77818e-06)
(-0.00541009 0.00147641 -1.5747e-06)
(-0.00573865 0.000971815 -1.45311e-06)
(-0.00593344 0.000439583 -1.42033e-06)
(-0.00598837 -0.000111455 -1.48626e-06)
(-0.00589842 -0.000672027 -1.62902e-06)
(-0.00566053 -0.00123117 -1.86509e-06)
(-0.00527421 -0.00177629 -2.17169e-06)
(-0.00474176 -0.00229259 -2.50308e-06)
(-0.00406973 -0.00276292 -2.77684e-06)
(-0.00327021 -0.00316821 -2.8314e-06)
(-0.00236506 -0.00348683 -2.34052e-06)
(-0.00135798 -0.00366601 -1.20537e-06)
(-0.000413023 -0.0031715 4.94513e-06)
(-0.000398869 0.00372277 -1.19213e-05)
(-0.00132382 0.00434504 -6.31231e-06)
(-0.00232755 0.00418863 -4.95353e-06)
(-0.00324888 0.00388923 -3.92212e-06)
(-0.00409084 0.00349688 -3.28995e-06)
(-0.0048325 0.00302518 -2.83643e-06)
(-0.00545921 0.00248617 -2.48849e-06)
(-0.0059594 0.00189146 -2.22883e-06)
(-0.00632382 0.00125192 -2.06024e-06)
(-0.00654488 0.00057782 -1.99258e-06)
(-0.00661625 -0.000120722 -2.0405e-06)
(-0.00653174 -0.000833302 -2.17077e-06)
(-0.00628633 -0.00154725 -2.4153e-06)
(-0.00587722 -0.00224754 -2.75597e-06)
(-0.00530392 -0.00291583 -3.1434e-06)
(-0.00457026 -0.00352991 -3.48494e-06)
(-0.00368654 -0.00406397 -3.59324e-06)
(-0.00267534 -0.00448773 -3.08264e-06)
(-0.00154065 -0.00472992 -1.82541e-06)
(-0.000469546 -0.00409949 5.16682e-06)
(-0.000447516 0.00463257 -1.41086e-05)
(-0.00148498 0.00540407 -7.85054e-06)
(-0.00260881 0.00520514 -6.32206e-06)
(-0.00363668 0.00482857 -5.12943e-06)
(-0.00457284 0.00433793 -4.37743e-06)
(-0.00539513 0.00375147 -3.8228e-06)
(-0.0060892 0.00308492 -3.38802e-06)
(-0.00664435 0.00235273 -3.05558e-06)
(-0.0070523 0.00156771 -2.83026e-06)
(-0.0073061 0.000741301 -2.72624e-06)
(-0.0073995 -0.000115787 -2.7666e-06)
(-0.00732496 -0.000993018 -2.89347e-06)
(-0.00707478 -0.00187692 -3.16917e-06)
(-0.00664281 -0.00275083 -3.58062e-06)
(-0.00602415 -0.00359312 -4.07723e-06)
(-0.005218 -0.00437606 -4.55315e-06)
(-0.0042309 -0.00506555 -4.78576e-06)
(-0.00308495 -0.00561968 -4.30386e-06)
(-0.00178394 -0.00594315 -2.92773e-06)
(-0.000545351 -0.00516305 5.17447e-06)
(-0.00050883 0.00566113 -1.70274e-05)
(-0.00168745 0.00659983 -9.9519e-06)
(-0.00296049 0.00634904 -8.18781e-06)
(-0.00411865 0.00588134 -6.7585e-06)
(-0.00516803 0.00527688 -5.82123e-06)
(-0.00608553 0.00456013 -5.10814e-06)
(-0.00685797 0.00375152 -4.53877e-06)
(-0.00747663 0.00286876 -4.09598e-06)
(-0.00793526 0.00192645 -3.78698e-06)
(-0.00822839 0.000936548 -3.63325e-06)
(-0.00835058 -9.05899e-05 -3.67817e-06)
(-0.00829288 -0.001146 -3.79806e-06)
(-0.00804415 -0.00221671 -4.13161e-06)
(-0.00759342 -0.00328603 -4.66204e-06)
(-0.00692916 -0.0043299 -5.34523e-06)
(-0.00604287 -0.00531493 -6.06173e-06)
(-0.00493384 -0.00619696 -6.54326e-06)
(-0.00362099 -0.00691834 -6.19781e-06)
(-0.00210639 -0.0073511 -4.74625e-06)
(-0.000646881 -0.00640636 4.76071e-06)
(-0.000585887 0.00683877 -2.10052e-05)
(-0.00194053 0.00796581 -1.29015e-05)
(-0.00339702 0.00764925 -1.07885e-05)
(-0.0047119 0.00707068 -8.99228e-06)
(-0.00589416 0.00633124 -7.75331e-06)
(-0.00692052 0.00546396 -6.78057e-06)
(-0.0077806 0.00449538 -5.99346e-06)
(-0.00846945 0.00344698 -5.37486e-06)
(-0.00898453 0.00233488 -4.93201e-06)
(-0.00932316 0.00117046 -4.6957e-06)
(-0.00948206 -3.81898e-05 -4.81222e-06)
(-0.0094511 -0.00128393 -4.85873e-06)
(-0.00921482 -0.00255852 -5.29236e-06)
(-0.008756 -0.00384747 -6.0164e-06)
(-0.00805306 -0.00512634 -7.00204e-06)
(-0.00708529 -0.00635668 -8.1334e-06)
(-0.00583896 -0.00748267 -9.08808e-06)
(-0.00432387 -0.00842571 -9.11064e-06)
(-0.0025371 -0.00901141 -7.71105e-06)
(-0.000784743 -0.00788868 3.49082e-06)
(-0.000683522 0.00820372 -2.65677e-05)
(-0.00225818 0.0095429 -1.71505e-05)
(-0.00393915 0.00913955 -1.44761e-05)
(-0.00544026 0.00842168 -1.20806e-05)
(-0.00677489 0.00751817 -1.03327e-05)
(-0.00792143 0.00647388 -8.92681e-06)
(-0.00887499 0.00532337 -7.78471e-06)
(-0.00963716 0.00409249 -6.88529e-06)
(-0.0102118 0.00279834 -6.222e-06)
(-0.0106015 0.00145032 -5.76118e-06)
(-0.010805 5.21496e-05 -5.25938e-06)
(-0.0108132 -0.0013938 -5.91592e-06)
(-0.0106077 -0.0028875 -6.59504e-06)
(-0.0101613 -0.00442082 -7.62917e-06)
(-0.00943839 -0.00597325 -9.09107e-06)
(-0.00839948 -0.00750403 -1.09162e-05)
(-0.00700873 -0.0089449 -1.2742e-05)
(-0.00525484 -0.0101911 -1.3617e-05)
(-0.00312319 -0.0109989 -1.25621e-05)
(-0.00097731 -0.00969366 4.83524e-07)
(-0.000809722 0.00980664 -3.46186e-05)
(-0.00266198 0.0113826 -2.34562e-05)
(-0.00461745 0.01086 -1.97901e-05)
(-0.00633747 0.00996106 -1.6368e-05)
(-0.00784214 0.00885301 -1.37388e-05)
(-0.00911538 0.00759684 -1.16051e-05)
(-0.0101621 0.00623752 -9.88712e-06)
(-0.0109945 0.00480581 -8.55369e-06)
(-0.0116268 0.00331896 -7.59146e-06)
(-0.0120694 0.00178245 -6.99438e-06)
(-0.0123262 0.000193079 -6.79684e-06)
(-0.0123908 -0.00145732 -7.12719e-06)
(-0.0122419 -0.0031798 -7.95505e-06)
(-0.0118418 -0.00497911 -9.40407e-06)
(-0.0111363 -0.006846 -1.15917e-05)
(-0.0100573 -0.00874481 -1.45373e-05)
(-0.00853338 -0.0105976 -1.79159e-05)
(-0.00650843 -0.0122706 -2.06456e-05)
(-0.00394429 -0.0134123 -2.05392e-05)
(-0.00125853 -0.0119461 -6.03379e-06)
(-0.000978523 0.0117164 -4.67518e-05)
(-0.00318665 0.0135506 -3.31072e-05)
(-0.00547778 0.0128587 -2.75514e-05)
(-0.00745211 0.011716 -2.23029e-05)
(-0.00913933 0.0103466 -1.81172e-05)
(-0.010537 0.00883219 -1.47589e-05)
(-0.0116661 0.00723117 -1.21189e-05)
(-0.0125558 0.00557948 -1.01322e-05)
(-0.0132352 0.0038928 -8.74163e-06)
(-0.0137274 0.00216977 -7.91659e-06)
(-0.0140448 0.000396158 -7.68559e-06)
(-0.0141862 -0.0014508 -7.98201e-06)
(-0.0141295 -0.00339999 -9.02806e-06)
(-0.0138275 -0.00547741 -1.10251e-05)
(-0.0132041 -0.00769621 -1.42514e-05)
(-0.0121515 -0.0100397 -1.89609e-05)
(-0.0105438 -0.0124325 -2.49947e-05)
(-0.0082331 -0.0147231 -3.16405e-05)
(-0.00514045 -0.0163796 -3.37615e-05)
(-0.00169462 -0.0148429 -2.02298e-05)
(-0.00121478 0.0140526 -6.64882e-05)
(-0.00388838 0.0161415 -4.86116e-05)
(-0.00658951 0.0151959 -3.90478e-05)
(-0.00885507 0.0137116 -3.03842e-05)
(-0.0107262 0.0120003 -2.33921e-05)
(-0.0122309 0.0101659 -1.79984e-05)
(-0.0134149 0.00828393 -1.39453e-05)
(-0.014333 0.00639366 -1.1042e-05)
(-0.0150365 0.00450611 -9.08116e-06)
(-0.0155661 0.00260922 -7.92748e-06)
(-0.0159468 0.000672895 -7.49835e-06)
(-0.016187 -0.00134502 -7.80864e-06)
(-0.0162685 -0.00349855 -9.09949e-06)
(-0.016138 -0.0058461 -1.17116e-05)
(-0.0156986 -0.00843951 -1.62445e-05)
(-0.0147941 -0.0113035 -2.34819e-05)
(-0.0132285 -0.0143913 -3.38034e-05)
(-0.0106645 -0.0175928 -4.85594e-05)
(-0.00696846 -0.0200372 -5.58746e-05)
(-0.00242354 -0.0187404 -5.11704e-05)
(-0.00158036 0.0168336 -9.76159e-05)
(-0.0048842 0.0192242 -7.26507e-05)
(-0.00806805 0.0179259 -5.53512e-05)
(-0.0106541 0.0159602 -4.06473e-05)
(-0.0126853 0.0137962 -2.86841e-05)
(-0.0142535 0.0115625 -2.00722e-05)
(-0.0154384 0.00935474 -1.40392e-05)
(-0.0163337 0.00721063 -1.00183e-05)
(-0.0170197 0.00513061 -7.40785e-06)
(-0.0175607 0.00308715 -5.90156e-06)
(-0.0179991 0.00103036 -5.30201e-06)
(-0.0183577 -0.00110695 -5.47903e-06)
(-0.0186307 -0.00341122 -6.71095e-06)
(-0.0187685 -0.00598434 -9.60436e-06)
(-0.0186615 -0.00893879 -1.52925e-05)
(-0.0181042 -0.0123781 -2.53967e-05)
(-0.0168469 -0.0163287 -4.14749e-05)
(-0.0141569 -0.0208924 -7.23581e-05)
(-0.00994761 -0.0245468 -8.99602e-05)
(-0.00379692 -0.0242729 -0.00011994)
(-0.00206068 0.0210811 -0.000177757)
(-0.00620233 0.0231741 -0.00012015)
(-0.010038 0.0212057 -8.12445e-05)
(-0.0129927 0.0184689 -5.23743e-05)
(-0.0151241 0.0156875 -3.09647e-05)
(-0.0166726 0.0129524 -1.75939e-05)
(-0.0177668 0.0103715 -9.30798e-06)
(-0.0185571 0.00796665 -4.38955e-06)
(-0.01916 0.00571755 -1.42369e-06)
(-0.0196663 0.00357401 2.42646e-07)
(-0.0201409 0.0014621 1.03954e-06)
(-0.0206285 -0.000718587 1.05249e-06)
(-0.0211459 -0.00307303 8.81811e-07)
(-0.0216655 -0.00577538 -9.06172e-07)
(-0.0220919 -0.0090251 -5.94122e-06)
(-0.0221859 -0.0130635 -1.74572e-05)
(-0.0217546 -0.0180357 -3.85281e-05)
(-0.0192782 -0.0245776 -0.000101052)
(-0.0150535 -0.029988 -0.000136504)
(-0.00655428 -0.0326447 -0.000274888)
(-0.00353961 0.0242382 -0.000234089)
(-0.0090094 0.0273165 -0.000172284)
(-0.0129787 0.0247364 -0.000101031)
(-0.016182 0.0211109 -5.4794e-05)
(-0.0182008 0.0175523 -1.99116e-05)
(-0.0195694 0.01421 -1.82223e-06)
(-0.0204235 0.0112184 7.42813e-06)
(-0.0209865 0.00856466 1.13792e-05)
(-0.0214108 0.00619395 1.29054e-05)
(-0.0218141 0.0040266 1.3556e-05)
(-0.0222892 0.00196907 1.42329e-05)
(-0.0228898 -9.18486e-05 1.61499e-05)
(-0.0236841 -0.00232176 1.84094e-05)
(-0.0247169 -0.00491233 2.11901e-05)
(-0.0259451 -0.00811343 2.32757e-05)
(-0.0271171 -0.0124135 1.71666e-05)
(-0.0283494 -0.0178691 6.03724e-06)
(-0.0267061 -0.0272936 -0.000105882)
(-0.024033 -0.0346293 -0.000140961)
(-0.0122559 -0.0455583 -0.000570627)
(-0.0036077 0.0367465 -0.00058689)
(-0.0105888 0.0332401 -0.000267453)
(-0.016461 0.0294933 -0.000135279)
(-0.0202056 0.023643 -2.33906e-05)
(-0.0220194 0.0190026 3.2901e-05)
(-0.0229914 0.0150017 4.94885e-05)
(-0.0233855 0.011642 5.1994e-05)
(-0.0235447 0.00881568 4.84454e-05)
(-0.0236515 0.00641441 4.40468e-05)
(-0.0238352 0.0043181 4.1324e-05)
(-0.0241939 0.00239399 4.1629e-05)
(-0.0248433 0.000490066 4.55265e-05)
(-0.0258763 -0.00158523 5.32901e-05)
(-0.0273456 -0.00409083 7.28979e-05)
(-0.0294416 -0.00738625 0.000111035)
(-0.0317327 -0.012396 0.000148123)
(-0.0362043 -0.0192418 0.000243971)
(-0.0363116 -0.0326751 6.87917e-05)
(-0.03921 -0.0448194 0.000120405)
(-0.0224363 -0.0704483 -0.00102396)
(-0.0113177 0.0354508 -0.000897498)
(-0.0230309 0.0429974 -0.000683621)
(-0.0225623 0.0350649 -0.000164007)
(-0.0266578 0.0277805 -1.2307e-05)
(-0.026532 0.0212997 0.000109152)
(-0.0263792 0.016031 0.000138974)
(-0.0258339 0.0119929 0.000138277)
(-0.0252549 0.00889633 0.000122862)
(-0.0247989 0.00648753 0.000105619)
(-0.0245981 0.00456366 9.20674e-05)
(-0.0247666 0.0029685 8.50001e-05)
(-0.0254058 0.00157375 8.64871e-05)
(-0.0266796 0.000328405 0.000106411)
(-0.0287735 -0.0010033 0.00014685)
(-0.0322769 -0.00215798 0.00023145)
(-0.0364977 -0.00583506 0.00033017)
(-0.0449864 -0.00739896 0.000628825)
(-0.0464557 -0.02493 0.000547397)
(-0.0558111 -0.0361223 0.000996387)
(-0.0230743 -0.102381 -0.00107264)
(-0.0410185 0.083112 -0.00179805)
(-0.032765 0.0379821 0.000369382)
(-0.0331381 0.0330182 0.000512731)
(-0.0271051 0.0233003 0.000828667)
(-0.0214218 0.0164922 0.000773617)
(-0.0166955 0.0121286 0.000617718)
(-0.012729 0.00899901 0.000473117)
(-0.0096898 0.00666818 0.000358334)
(-0.00745272 0.00492372 0.000276928)
(-0.00589882 0.00359884 0.000225181)
(-0.00494278 0.00257968 0.000201883)
(-0.00448487 0.00175464 0.000205396)
(-0.00465353 0.00109758 0.00026248)
(-0.00477371 0.000192391 0.000336168)
(-0.00745263 -0.000785434 0.000698242)
(-0.00524283 -0.00469075 0.000847258)
(-0.015606 -0.0112306 0.00222591)
(-0.00298047 -0.0357335 0.0019284)
(-0.0319253 -0.075577 0.00384597)
(0.0127037 -0.169071 -0.00214847)
(0.0954351 0.0953745 -0.00294386)
(0.110379 0.0453441 -0.0018726)
(0.16143 0.0291808 -0.000825711)
(0.184879 0.0187421 8.40046e-05)
(0.199679 0.011623 0.000441479)
(0.210262 0.00743397 0.000511915)
(0.217607 0.00503327 0.000482738)
(0.222737 0.00355066 0.000409592)
(0.226445 0.00256926 0.000331561)
(0.229163 0.00188589 0.000267541)
(0.231043 0.00139872 0.000232812)
(0.232478 0.000979276 0.000201404)
(0.232709 0.000666761 0.000258874)
(0.234094 0.000129184 0.000227491)
(0.229852 -0.000673712 0.000578621)
(0.23496 -0.00140183 0.00055774)
(0.212772 -0.00580427 0.00137007)
(0.22428 -0.0124173 0.00169521)
(0.139015 -0.032522 -0.000673939)
(0.137458 -0.0879732 -0.00764465)
(-0.000286054 0.000282541 -2.96774e-06)
(-0.000956872 0.000338855 1.96215e-06)
(-0.00169096 0.000327507 2.98449e-06)
(-0.00236646 0.00030459 3.47101e-06)
(-0.00298614 0.000274242 3.42166e-06)
(-0.00353332 0.000237355 3.03848e-06)
(-0.00399492 0.000194753 2.4133e-06)
(-0.00435979 0.000147322 1.59146e-06)
(-0.00461874 9.60006e-05 6.0213e-07)
(-0.0047646 4.17887e-05 -5.28898e-07)
(-0.00479242 -1.42643e-05 -1.78772e-06)
(-0.00469953 -7.11125e-05 -3.12718e-06)
(-0.00448576 -0.000127405 -4.50432e-06)
(-0.00415377 -0.000181743 -5.85911e-06)
(-0.00370936 -0.000232578 -7.11002e-06)
(-0.00316171 -0.000278249 -8.14383e-06)
(-0.00252359 -0.000317041 -8.78802e-06)
(-0.00181352 -0.000347109 -8.75229e-06)
(-0.00103206 -0.00036315 -7.94157e-06)
(-0.000310387 -0.000305586 -2.37748e-06)
(-0.000356729 0.000961982 -8.67197e-06)
(-0.00118216 0.00114239 -3.52463e-06)
(-0.00207757 0.00110345 -2.14719e-06)
(-0.00290222 0.00102552 -1.17955e-06)
(-0.00365777 0.000922407 -6.81822e-07)
(-0.00432396 0.000797304 -4.47741e-07)
(-0.00488498 0.000653134 -3.97186e-07)
(-0.00532751 0.000492981 -5.00327e-07)
(-0.00564067 0.000320047 -7.45857e-07)
(-0.00581608 0.000137643 -1.12924e-06)
(-0.00584812 -5.08702e-05 -1.63693e-06)
(-0.00573366 -0.000241526 -2.24204e-06)
(-0.0054725 -0.000430185 -2.92581e-06)
(-0.00506798 -0.000612253 -3.63858e-06)
(-0.004527 -0.000782609 -4.30769e-06)
(-0.00386052 -0.000935718 -4.82489e-06)
(-0.00308391 -0.00106582 -5.01437e-06)
(-0.00221943 -0.00116667 -4.57005e-06)
(-0.00126923 -0.0012206 -3.43516e-06)
(-0.000384896 -0.00103628 2.45679e-06)
(-0.000376642 0.00175513 -1.08971e-05)
(-0.00124845 0.0020725 -5.58225e-06)
(-0.00219386 0.00200085 -4.06429e-06)
(-0.00306369 0.00185864 -2.91318e-06)
(-0.0038602 0.00167078 -2.21829e-06)
(-0.00456222 0.00144326 -1.77317e-06)
(-0.00515349 0.00118153 -1.4987e-06)
(-0.00562037 0.000891295 -1.36899e-06)
(-0.00595181 0.000578333 -1.37709e-06)
(-0.00613934 0.000248552 -1.5182e-06)
(-0.0061767 -9.19609e-05 -1.8025e-06)
(-0.00606031 -0.000436458 -2.19729e-06)
(-0.00578979 -0.000777589 -2.68932e-06)
(-0.00536776 -0.00110718 -3.23016e-06)
(-0.00480056 -0.00141607 -3.74913e-06)
(-0.00409886 -0.00169423 -4.13614e-06)
(-0.00327815 -0.00193109 -4.20711e-06)
(-0.00236171 -0.00211504 -3.63539e-06)
(-0.00135161 -0.00221409 -2.36903e-06)
(-0.000409991 -0.0018899 3.82335e-06)
(-0.000401873 0.00257436 -1.29747e-05)
(-0.00133243 0.00303491 -7.38264e-06)
(-0.0023413 0.00292873 -5.7187e-06)
(-0.0032685 0.00271953 -4.40315e-06)
(-0.00411689 0.00244382 -3.5491e-06)
(-0.00486429 0.0021106 -2.94076e-06)
(-0.00549404 0.00172807 -2.49941e-06)
(-0.0059923 0.00130454 -2.20267e-06)
(-0.00634791 0.000848369 -2.0486e-06)
(-0.00655215 0.000367922 -2.04043e-06)
(-0.00659854 -0.000128142 -2.18375e-06)
(-0.00648272 -0.000630851 -2.45217e-06)
(-0.00620316 -0.00112973 -2.84101e-06)
(-0.00576146 -0.00161311 -3.30483e-06)
(-0.0051628 -0.00206773 -3.77033e-06)
(-0.00441696 -0.00247876 -4.1196e-06)
(-0.00353918 -0.00283025 -4.15091e-06)
(-0.0025539 -0.00310438 -3.50159e-06)
(-0.0014634 -0.00325343 -2.11367e-06)
(-0.000444191 -0.00278266 4.5559e-06)
(-0.00043707 0.00345753 -1.5263e-05)
(-0.00144922 0.00407255 -9.2464e-06)
(-0.00254588 0.00392813 -7.40462e-06)
(-0.00355207 0.00364577 -5.90592e-06)
(-0.00447147 0.00327478 -4.89167e-06)
(-0.00528063 0.00282777 -4.13187e-06)
(-0.00596249 0.00231605 -3.54629e-06)
(-0.00650321 0.0017508 -3.11473e-06)
(-0.00689169 0.00114289 -2.83901e-06)
(-0.00711913 0.000502947 -2.72718e-06)
(-0.0071787 -0.000158312 -2.78891e-06)
(-0.007065 -0.000829672 -2.99347e-06)
(-0.00677494 -0.00149808 -3.34907e-06)
(-0.00630839 -0.00214858 -3.81268e-06)
(-0.00566852 -0.0027637 -4.30597e-06)
(-0.00486341 -0.00332326 -4.69804e-06)
(-0.00390748 -0.00380487 -4.75916e-06)
(-0.00282634 -0.0041829 -4.07045e-06)
(-0.00162262 -0.00439104 -2.55485e-06)
(-0.000493109 -0.00376176 4.84059e-06)
(-0.000483612 0.00442688 -1.80887e-05)
(-0.00160333 0.00521105 -1.14944e-05)
(-0.0028151 0.00502294 -9.42014e-06)
(-0.00392408 0.00465857 -7.68436e-06)
(-0.00493506 0.00418192 -6.46875e-06)
(-0.00582314 0.00361005 -5.52622e-06)
(-0.00657115 0.00295797 -4.77529e-06)
(-0.0071656 0.00224001 -4.19836e-06)
(-0.0075959 0.00146954 -3.80124e-06)
(-0.00785349 0.00065912 -3.59721e-06)
(-0.00793129 -0.000178963 -3.60305e-06)
(-0.00782261 -0.00103207 -3.77733e-06)
(-0.00752219 -0.00188513 -4.14698e-06)
(-0.00702719 -0.00272031 -4.67384e-06)
(-0.00633758 -0.00351593 -5.27317e-06)
(-0.00545834 -0.00424586 -5.79608e-06)
(-0.00440183 -0.00487981 -5.97233e-06)
(-0.0031945 -0.00538195 -5.29938e-06)
(-0.00183909 -0.00566301 -3.66165e-06)
(-0.000559932 -0.00486007 4.7333e-06)
(-0.000543241 0.00550774 -2.17716e-05)
(-0.00180031 0.00647949 -1.443e-05)
(-0.00315801 0.00623973 -1.20374e-05)
(-0.0043958 0.00578098 -9.96793e-06)
(-0.0055201 0.00518447 -8.46495e-06)
(-0.00650459 0.00447306 -7.26399e-06)
(-0.00733255 0.00366635 -6.28504e-06)
(-0.00799166 0.00278217 -5.51458e-06)
(-0.00847259 0.00183631 -4.96351e-06)
(-0.00876765 0.000842761 -4.65226e-06)
(-0.0088699 -0.000185465 -4.60938e-06)
(-0.00877118 -0.00123545 -4.76869e-06)
(-0.00846319 -0.00229121 -5.19374e-06)
(-0.0079392 -0.00333292 -5.85261e-06)
(-0.00719409 -0.00433501 -6.65689e-06)
(-0.00622749 -0.00526486 -7.4352e-06)
(-0.00504743 -0.00608246 -7.86142e-06)
(-0.00367985 -0.00673824 -7.31032e-06)
(-0.00212694 -0.00711329 -5.59111e-06)
(-0.000649372 -0.00611833 4.11633e-06)
(-0.00061852 0.00672984 -2.67001e-05)
(-0.00204812 0.00791159 -1.84083e-05)
(-0.00358726 0.0076085 -1.55596e-05)
(-0.00498264 0.00703805 -1.29955e-05)
(-0.0062431 0.00630244 -1.10555e-05)
(-0.00734129 0.00543235 -9.46238e-06)
(-0.00826207 0.00445316 -8.14295e-06)
(-0.00899566 0.00338675 -7.08962e-06)
(-0.00953532 0.00225113 -6.31865e-06)
(-0.00987528 0.00106088 -5.86061e-06)
(-0.0100095 -0.000171478 -5.7697e-06)
(-0.00992837 -0.00143452 -5.91179e-06)
(-0.00961966 -0.00271314 -6.43906e-06)
(-0.009071 -0.00398729 -7.31931e-06)
(-0.00826954 -0.0052285 -8.47047e-06)
(-0.00720604 -0.00639745 -9.69882e-06)
(-0.00588014 -0.00744229 -1.06058e-05)
(-0.00431413 -0.0082949 -1.03893e-05)
(-0.00250782 -0.00879634 -8.70512e-06)
(-0.000768927 -0.00758884 2.67738e-06)
(-0.00071331 0.00812911 -3.34342e-05)
(-0.00235838 0.0095472 -2.39301e-05)
(-0.00412078 0.00916346 -2.03921e-05)
(-0.00570578 0.00845684 -1.70624e-05)
(-0.00712594 0.00755604 -1.44329e-05)
(-0.00835391 0.00650237 -1.22259e-05)
(-0.00937819 0.00532878 -1.03834e-05)
(-0.0101937 0.00406177 -8.90362e-06)
(-0.0107985 0.00272116 -7.80299e-06)
(-0.0111903 0.00132096 -7.1211e-06)
(-0.0113653 -0.000128613 -7.02348e-06)
(-0.0113129 -0.00162021 -7.08134e-06)
(-0.011016 -0.00314235 -7.77627e-06)
(-0.0104546 -0.00467793 -9.00362e-06)
(-0.00960427 -0.00619796 -1.07074e-05)
(-0.0084416 -0.0076571 -1.26944e-05)
(-0.00695115 -0.00898976 -1.44822e-05)
(-0.00514467 -0.0101031 -1.50248e-05)
(-0.00301574 -0.0107815 -1.36533e-05)
(-0.000930959 -0.0093418 -2.5127e-07)
(-0.00083364 0.0097507 -4.28529e-05)
(-0.00274845 0.0114348 -3.17635e-05)
(-0.00478435 0.0109443 -2.71162e-05)
(-0.00659466 0.0100664 -2.25549e-05)
(-0.00819775 0.00896465 -1.88087e-05)
(-0.0095686 0.00769502 -1.56277e-05)
(-0.0107027 0.00630028 -1.29777e-05)
(-0.0116033 0.00481222 -1.08556e-05)
(-0.0122762 0.00325175 -9.25609e-06)
(-0.0127251 0.00163041 -8.13573e-06)
(-0.0129507 -4.70552e-05 -7.23073e-06)
(-0.0129421 -0.00177844 -7.95058e-06)
(-0.0126774 -0.00356249 -8.98723e-06)
(-0.0121266 -0.00538934 -1.07314e-05)
(-0.0112487 -0.0072343 -1.32759e-05)
(-0.00999824 -0.0090491 -1.64976e-05)
(-0.00833404 -0.0107534 -1.98502e-05)
(-0.00624343 -0.0122233 -2.19949e-05)
(-0.00370596 -0.0131592 -2.15349e-05)
(-0.00115696 -0.0114767 -6.05085e-06)
(-0.000989389 0.011654 -5.64145e-05)
(-0.00324499 0.013635 -4.31429e-05)
(-0.00561568 0.0129976 -3.6587e-05)
(-0.00769073 0.0118971 -2.99728e-05)
(-0.00949755 0.010545 -2.43828e-05)
(-0.0110184 0.00901705 -1.96491e-05)
(-0.0122611 0.00736872 -1.57598e-05)
(-0.0132423 0.0056376 -1.26967e-05)
(-0.0139804 0.00384454 -1.04309e-05)
(-0.0144891 0.00199605 -8.93472e-06)
(-0.0147742 8.79213e-05 -8.2375e-06)
(-0.0148283 -0.00188824 -8.51506e-06)
(-0.0146269 -0.00394635 -9.74183e-06)
(-0.0141264 -0.00609107 -1.21269e-05)
(-0.0132641 -0.00831055 -1.58775e-05)
(-0.0119612 -0.0105619 -2.10255e-05)
(-0.0101354 -0.0127531 -2.70719e-05)
(-0.00772175 -0.0147259 -3.24759e-05)
(-0.00467221 -0.0160497 -3.4126e-05)
(-0.00148682 -0.0141434 -1.74265e-05)
(-0.00119773 0.0139185 -7.65975e-05)
(-0.00389065 0.0162242 -6.00746e-05)
(-0.00667106 0.0153784 -5.00445e-05)
(-0.00905334 0.0139791 -3.99111e-05)
(-0.0110781 0.0123078 -3.12331e-05)
(-0.012745 0.0104658 -2.40255e-05)
(-0.0140823 0.0085247 -1.82605e-05)
(-0.0151276 0.00652806 -1.38559e-05)
(-0.0159178 0.00449434 -1.06892e-05)
(-0.0164818 0.0024214 -8.65373e-06)
(-0.016835 0.000291837 -7.75559e-06)
(-0.0169765 -0.00192144 -7.85424e-06)
(-0.0168803 -0.00425252 -9.27822e-06)
(-0.0164909 -0.00673122 -1.23902e-05)
(-0.0157196 -0.00937171 -1.77322e-05)
(-0.0144415 -0.0121527 -2.5734e-05)
(-0.0125108 -0.0149844 -3.62239e-05)
(-0.00975547 -0.0176867 -4.81222e-05)
(-0.00608097 -0.0196114 -5.42679e-05)
(-0.00199953 -0.0175817 -4.02291e-05)
(-0.00148842 0.0166828 -0.000108473)
(-0.00475319 0.0193117 -8.62025e-05)
(-0.00803474 0.0181549 -6.93212e-05)
(-0.0107682 0.0163388 -5.29326e-05)
(-0.0130112 0.0142516 -3.90077e-05)
(-0.0148016 0.0120223 -2.79027e-05)
(-0.0161989 0.00974275 -1.94027e-05)
(-0.0172728 0.00745963 -1.32135e-05)
(-0.0180871 0.00518509 -8.94939e-06)
(-0.0186917 0.00290341 -6.24641e-06)
(-0.0191171 0.000577721 -4.90263e-06)
(-0.0193728 -0.00184271 -4.80687e-06)
(-0.0194368 -0.00442181 -6.27962e-06)
(-0.0192456 -0.00722764 -1.00085e-05)
(-0.0186855 -0.0103196 -1.70691e-05)
(-0.0175747 -0.0137242 -2.88567e-05)
(-0.0156858 -0.0173847 -4.61473e-05)
(-0.0126257 -0.0211678 -7.07798e-05)
(-0.00824126 -0.0240186 -8.63058e-05)
(-0.00286225 -0.0222298 -8.61206e-05)
(-0.00193555 0.0199438 -0.000157753)
(-0.00597358 0.0229677 -0.000125474)
(-0.00984597 0.0213833 -9.59167e-05)
(-0.0129646 0.0189856 -6.88164e-05)
(-0.0153949 0.0163522 -4.60912e-05)
(-0.0172541 0.0136431 -2.90897e-05)
(-0.0186452 0.0109739 -1.69036e-05)
(-0.0196854 0.00838847 -8.66416e-06)
(-0.0204741 0.00588512 -3.32999e-06)
(-0.0210892 0.00342853 -4.51784e-08)
(-0.0215812 0.000957274 1.78198e-06)
(-0.0219761 -0.00160999 2.41518e-06)
(-0.0222653 -0.00437521 1.49688e-06)
(-0.0223887 -0.00745884 -1.99301e-06)
(-0.0222161 -0.0109914 -9.96407e-06)
(-0.021508 -0.0150913 -2.55574e-05)
(-0.0199738 -0.0197883 -5.15052e-05)
(-0.0167612 -0.0251966 -0.000100146)
(-0.0117848 -0.0294805 -0.000132932)
(-0.00450495 -0.0288904 -0.000181697)
(-0.00250497 0.0249391 -0.000271175)
(-0.00756367 0.0276405 -0.000196804)
(-0.0122472 0.025249 -0.000135804)
(-0.0158093 0.0219256 -8.61182e-05)
(-0.0183541 0.0185539 -4.78728e-05)
(-0.0201803 0.0152471 -2.24775e-05)
(-0.0214537 0.0121356 -6.11755e-06)
(-0.0223617 0.00924274 3.68837e-06)
(-0.023047 0.0065409 9.60259e-06)
(-0.0236195 0.00396662 1.3213e-05)
(-0.0241556 0.00142891 1.55346e-05)
(-0.0247052 -0.00119247 1.70384e-05)
(-0.0252855 -0.00402707 1.84036e-05)
(-0.0258616 -0.0072771 1.76051e-05)
(-0.0263174 -0.0111745 1.18631e-05)
(-0.0263743 -0.0160006 -4.6772e-06)
(-0.0258077 -0.0219232 -3.75625e-05)
(-0.0228543 -0.0297026 -0.000131204)
(-0.0179199 -0.0360665 -0.000192209)
(-0.0078596 -0.0390951 -0.00038609)
(-0.00429386 0.0284149 -0.000361866)
(-0.0109636 0.0325111 -0.000277748)
(-0.0158131 0.0293744 -0.00016963)
(-0.0196718 0.0250172 -9.07523e-05)
(-0.022072 0.0207252 -3.0674e-05)
(-0.0236725 0.0166969 3.61671e-06)
(-0.0246487 0.0131005 2.24645e-05)
(-0.0252787 0.00991676 3.15631e-05)
(-0.0257482 0.00707535 3.58166e-05)
(-0.0261985 0.00447622 3.82423e-05)
(-0.026737 0.00200266 4.06999e-05)
(-0.027428 -0.000485284 4.50046e-05)
(-0.0283451 -0.00318658 5.11156e-05)
(-0.0295306 -0.0063231 5.79729e-05)
(-0.0309325 -0.0101895 6.28606e-05)
(-0.0322575 -0.0153622 5.34833e-05)
(-0.0336544 -0.0219136 3.23738e-05)
(-0.0317099 -0.0331601 -0.000128711)
(-0.028775 -0.0419239 -0.000198584)
(-0.0148205 -0.0553277 -0.000766538)
(-0.00418831 0.0428926 -0.000809619)
(-0.0126339 0.0391788 -0.000411005)
(-0.0200082 0.03487 -0.000221359)
(-0.0244971 0.0278965 -5.16698e-05)
(-0.0266694 0.0223805 4.06038e-05)
(-0.027789 0.0175977 7.72436e-05)
(-0.028203 0.013583 8.9648e-05)
(-0.0283421 0.0102064 8.98841e-05)
(-0.0284292 0.00733682 8.65982e-05)
(-0.0286204 0.00482675 8.47426e-05)
(-0.0290314 0.00251467 8.75208e-05)
(-0.029793 0.00021721 9.69275e-05)
(-0.0310012 -0.00228511 0.00011393)
(-0.0327104 -0.00530608 0.000147441)
(-0.0351427 -0.0092648 0.000205465)
(-0.0377946 -0.0152435 0.000254561)
(-0.0429717 -0.0233299 0.000373254)
(-0.0430884 -0.039242 0.000113802)
(-0.0468136 -0.0536213 0.00013769)
(-0.0261436 -0.0861443 -0.00134195)
(-0.0122364 0.0398925 -0.00122464)
(-0.0269531 0.0513803 -0.000946137)
(-0.0269654 0.0417357 -0.000280704)
(-0.0322271 0.033144 -4.82718e-05)
(-0.0320828 0.0253475 0.00013514)
(-0.0318684 0.018989 0.000194757)
(-0.0311295 0.0141241 0.000206811)
(-0.030357 0.0104005 0.000193741)
(-0.0297468 0.00750798 0.000174797)
(-0.0294578 0.00519607 0.000159576)
(-0.0296187 0.00327294 0.000153577)
(-0.0303363 0.00157952 0.00016068)
(-0.0317989 5.99283e-05 0.000192798)
(-0.0342072 -0.00160725 0.000251103)
(-0.0382301 -0.00297978 0.000365942)
(-0.042919 -0.00739259 0.00048852)
(-0.0524866 -0.00911612 0.000835277)
(-0.0530924 -0.0301655 0.000677886)
(-0.0637409 -0.0443072 0.00113838)
(-0.0217205 -0.127292 -0.00151189)
(-0.052489 0.0921276 -0.00223317)
(-0.0410186 0.0437727 0.000283558)
(-0.0428022 0.0390677 0.000500545)
(-0.0346087 0.0277082 0.000944002)
(-0.0271237 0.0196717 0.000930634)
(-0.0208121 0.0144489 0.000779083)
(-0.0155197 0.010682 0.00062335)
(-0.0114678 0.00787117 0.000491611)
(-0.00848351 0.00576855 0.00039475)
(-0.00639583 0.00417186 0.000332768)
(-0.00507901 0.00294292 0.000307361)
(-0.00436695 0.00193473 0.000318997)
(-0.00444014 0.00114094 0.000402348)
(-0.00424092 1.67575e-05 0.000511103)
(-0.00707155 -0.00105402 0.000993131)
(-0.0032483 -0.00565911 0.00116721)
(-0.0143401 -0.0130775 0.00287247)
(0.00469121 -0.0417428 0.00239265)
(-0.0284868 -0.0899451 0.00463035)
(0.0270204 -0.197318 -0.00280701)
(0.10155 0.111494 -0.00366752)
(0.120773 0.0563437 -0.00243925)
(0.177125 0.0370288 -0.00119974)
(0.206449 0.0243128 -5.38752e-05)
(0.2256 0.0153751 0.000465398)
(0.239663 0.00986444 0.000619142)