/*--------------------------------*- C++ -*----------------------------------*\
  =========                 |
  \\      /  F ield         | OpenFOAM: The Open Source CFD Toolbox
   \\    /   O peration     | Website:  https://openfoam.org
    \\  /    A nd           | Version:  9
     \\/     M anipulation  |
\*---------------------------------------------------------------------------*/
FoamFile
{
    format      ascii;
    class       volScalarField;
    location    "5";
    object      p;
}
// * * * * * * * * * * * * * * * * * * * * * * * * * * * * * * * * * * * * * //

dimensions      [0 2 -2 0 0 0 0];

internalField   nonuniform List<scalar> 
400
(
4.72712e-09
-8.42276e-06
1.38751e-05
5.27414e-05
0.000112538
0.000193888
0.000297635
0.000424455
0.000574514
0.000747169
0.000940627
0.0011516
0.00137496
0.00160344
0.00182758
0.00203602
0.00221617
0.00235403
0.00244581
0.00246009
8.20068e-06
-8.94167e-07
2.10282e-05
5.81932e-05
0.000115604
0.000194069
0.000294641
0.000418229
0.000565261
0.000735388
0.000927095
0.00113716
0.00136126
0.00159203
0.00181996
0.00203339
0.0022191
0.00236217
0.0024588
0.00247398
-1.73655e-05
-2.83847e-05
-7.75992e-06
2.73998e-05
8.25853e-05
0.000158771
0.000257331
0.00037958
0.000526428
0.000698046
0.0008935
0.00111055
0.00134472
0.0015889
0.00183324
0.00206515
0.00226974
0.00242931
0.00253846
0.00255634
-6.18783e-05
-7.48844e-05
-5.62061e-05
-2.40455e-05
2.77389e-05
0.000100409
0.000195841
0.000315988
0.000462524
0.000636498
0.000837883
0.00106506
0.00131499
0.00158073
0.00185217
0.00211513
0.00235181
0.00253997
0.0026711
0.00269589
-0.000128548
-0.000144092
-0.000128102
-0.000100006
-5.28549e-05
1.49858e-05
0.000106064
0.000223186
0.000369072
0.000546024
0.000755427
0.000996994
0.00126874
0.00156481
0.00187512
0.00218398
0.00246989
0.00270329
0.00286979
0.00290763
-0.000216576
-0.000235362
-0.000222981
-0.000200371
-0.000159614
-9.8645e-05
-1.41042e-05
9.78761e-05
0.000241356
0.000420284
0.000638046
0.000896935
0.0011949
0.00153023
0.00189293
0.00226594
0.00262344
0.00292564
0.00314743
0.00320961
-0.000325045
-0.000347907
-0.000340289
-0.000325029
-0.000293081
-0.000241924
-0.000167286
-6.40672e-05
7.34114e-05
0.000251157
0.000475026
0.000749887
0.00107864
0.00146144
0.00189089
0.00234997
0.00280864
0.00321472
0.00352295
0.00363208
-0.000452817
-0.000480715
-0.000479257
-0.000473679
-0.000453655
-0.000416251
-0.000356239
-0.000267194
-0.000141617
2.89572e-05
0.000253608
0.000541261
0.00089993
0.00133534
0.00184522
0.00241558
0.00301391
0.00357632
0.00402101
0.00422484
-0.000598333
-0.000632343
-0.00063864
-0.000645518
-0.00064123
-0.000622559
-0.000583376
-0.000515964
-0.00041094
-0.000257137
-4.1668e-05
0.000249569
0.000630489
0.0011179
0.00171793
0.0024255
0.00321128
0.00400565
0.00467043
0.00507109
-0.000759532
-0.00080083
-0.000816547
-0.000839009
-0.000854862
-0.000860863
-0.000850179
-0.00081401
-0.000741258
-0.000618089
-0.000427462
-0.000148656
0.000242987
0.000766119
0.00145238
0.00231448
0.00333992
0.00446901
0.00547723
0.00633051
-0.000933836
-0.000983704
-0.00101029
-0.00105166
-0.0010924
-0.00112971
-0.00115643
-0.00116314
-0.00113758
-0.00106395
-0.000922052
-0.0006862
-0.000324603
0.000199828
0.000949763
0.001963
0.00327266
0.00486425
0.00640813
0.00824491
-0.00111821
-0.00117806
-0.00121613
-0.00127964
-0.00134996
-0.00142552
-0.00149925
-0.00156181
-0.00160067
-0.00159921
-0.00153529
-0.00137879
-0.00108763
-0.000601108
0.000141522
0.00123152
0.00280457
0.00496369
0.00723452
0.0109998
-0.00130992
-0.00138311
-0.00143188
-0.0015217
-0.00162429
-0.0017432
-0.00187262
-0.00200417
-0.00212606
-0.00222287
-0.00227451
-0.00225334
-0.00211894
-0.00181269
-0.00125013
-0.000303898
0.00131527
0.00403889
0.0070668
0.0139729
-0.00150181
-0.00156695
-0.00162374
-0.00172909
-0.00187211
-0.00204998
-0.00225392
-0.00247314
-0.00269726
-0.00291535
-0.00311403
-0.00327462
-0.00336796
-0.00334729
-0.00313122
-0.00258135
-0.00152034
0.000855717
0.002468
0.0129695
-0.00171728
-0.00187774
-0.00192292
-0.00210188
-0.0022667
-0.0024795
-0.00272799
-0.00301366
-0.00333419
-0.00368588
-0.00406316
-0.0044657
-0.0048952
-0.00536253
-0.0058857
-0.00651046
-0.0074555
-0.00667471
-0.00822593
0.00492741
-0.00196214
-0.00190723
-0.00194598
-0.00203473
-0.00224694
-0.00254473
-0.00291999
-0.00335111
-0.00383012
-0.00435428
-0.00492843
-0.00557561
-0.00634269
-0.00730962
-0.00870711
-0.0106912
-0.0144218
-0.0165257
-0.0200764
-0.00656446
-0.00183171
-0.00245536
-0.00242903
-0.0028346
-0.00300468
-0.00332587
-0.00368546
-0.00412496
-0.00464129
-0.00525351
-0.00594791
-0.00680465
-0.0078871
-0.00932472
-0.0118457
-0.0149992
-0.0223179
-0.02945
-0.0323873
-0.0131313
-0.00351433
-0.00225538
-0.00218123
-0.0019606
-0.00222178
-0.00265921
-0.00325375
-0.00392887
-0.00467704
-0.005491
-0.00637871
-0.00736818
-0.00865422
-0.0101403
-0.0131084
-0.0170021
-0.0249507
-0.033804
-0.0360662
-0.00180945
-0.000275289
-0.00348818
-0.00304486
-0.00388966
-0.00386146
-0.00426521
-0.00466202
-0.00523722
-0.0058182
-0.00670747
-0.00739542
-0.00836174
-0.00962293
-0.0105643
-0.0142162
-0.0176624
-0.025071
-0.0307536
-0.0214122
0.0360475
-0.0138282
-0.00137594
-0.00087194
-0.000958164
-0.00141419
-0.00204677
-0.00290918
-0.00377472
-0.00476624
-0.00572424
-0.00679847
-0.00775869
-0.00911662
-0.0105164
-0.0123949
-0.0140681
-0.0130662
-0.000291712
0.0381652
0.13291
)
;

boundaryField
{
    movingWall
    {
        type            zeroGradient;
    }
    fixedWalls
    {
        type            zeroGradient;
    }
    frontAndBack
    {
        type            empty;
    }
}


// ************************************************************************* //
