/*--------------------------------*- C++ -*----------------------------------*\
  =========                 |
  \\      /  F ield         | OpenFOAM: The Open Source CFD Toolbox
   \\    /   O peration     | Website:  https://openfoam.org
    \\  /    A nd           | Version:  9
     \\/     M anipulation  |
\*---------------------------------------------------------------------------*/
FoamFile
{
    format      ascii;
    class       surfaceScalarField;
    location    "5";
    object      phi;
}
// * * * * * * * * * * * * * * * * * * * * * * * * * * * * * * * * * * * * * //

dimensions      [0 3 -1 0 0 0 0];

internalField   nonuniform List<scalar> 
760
(
-5.5681e-06
5.56809e-06
-1.47336e-05
9.16555e-06
-2.4278e-05
9.54437e-06
-3.35365e-05
9.25853e-06
-4.22955e-05
8.75892e-06
-5.03859e-05
8.09044e-06
-5.76271e-05
7.24117e-06
-6.38201e-05
6.19301e-06
-6.8748e-05
4.92789e-06
-7.21783e-05
3.4303e-06
-7.38688e-05
1.69052e-06
-7.35771e-05
-2.9164e-07
-7.10795e-05
-2.4976e-06
-6.62054e-05
-4.87413e-06
-5.88705e-05
-7.33496e-06
-4.9116e-05
-9.75448e-06
-3.716e-05
-1.1956e-05
-2.35139e-05
-1.36461e-05
-9.47606e-06
-1.40378e-05
-9.47606e-06
-9.47581e-06
1.50439e-05
-2.36246e-05
2.33143e-05
-3.8173e-05
2.40929e-05
-5.21802e-05
2.32657e-05
-6.53007e-05
2.18794e-05
-7.72606e-05
2.00503e-05
-8.77865e-05
1.77671e-05
-9.65964e-05
1.5003e-05
-0.000103398
1.17298e-05
-0.000107888
7.92023e-06
-0.000109763
3.5649e-06
-0.00010876
-1.29423e-06
-0.000104581
-6.67691e-06
-9.70422e-05
-1.24127e-05
-8.60678e-05
-1.83094e-05
-7.17447e-05
-2.40775e-05
-5.43884e-05
-2.93124e-05
-3.47062e-05
-3.33282e-05
-1.44424e-05
-3.43016e-05
-2.39184e-05
-1.04083e-05
2.54522e-05
-2.58513e-05
3.87573e-05
-4.16952e-05
3.99368e-05
-5.69348e-05
3.85053e-05
-7.12081e-05
3.61526e-05
-8.42286e-05
3.30708e-05
-9.57111e-05
2.92496e-05
-0.000105363
2.46545e-05
-0.000112879
1.92463e-05
-0.000117949
1.29903e-05
-0.000120256
5.87147e-06
-0.000119439
-2.11076e-06
-0.000115191
-1.09253e-05
-0.000107264
-2.03394e-05
-9.55144e-05
-3.00591e-05
-7.99614e-05
-3.96305e-05
-6.08834e-05
-4.83904e-05
-3.90198e-05
-5.51918e-05
-1.63215e-05
-5.69999e-05
-4.024e-05
-1.08794e-05
3.63316e-05
-2.709e-05
5.49679e-05
-4.37316e-05
5.65784e-05
-5.97701e-05
5.45439e-05
-7.48463e-05
5.12289e-05
-8.86795e-05
4.6904e-05
-0.000100989
4.15592e-05
-0.000111483
3.51486e-05
-0.000119852
2.7615e-05
-0.000125762
1.89009e-05
-0.00012886
8.96913e-06
-0.000128775
-2.19602e-06
-0.000125053
-1.46468e-05
-0.000117329
-2.80634e-05
-0.000105305
-4.20837e-05
-8.88613e-05
-5.60739e-05
-6.81782e-05
-6.90735e-05
-4.39919e-05
-7.93782e-05
-1.852e-05
-8.24718e-05
-5.876e-05
-1.14225e-05
4.77541e-05
-2.85406e-05
7.2086e-05
-4.6141e-05
7.41788e-05
-6.31533e-05
7.15561e-05
-7.92246e-05
6.73002e-05
-9.40865e-05
6.17658e-05
-0.00010747
5.4943e-05
-0.000119092
4.67704e-05
-0.000128641
3.71644e-05
-0.000135769
2.60281e-05
-0.000140073
1.32736e-05
-0.000141114
-1.15468e-06
-0.000138318
-1.74433e-05
-0.000131134
-3.52472e-05
-0.000119028
-5.41897e-05
-0.000101608
-7.34941e-05
-7.88333e-05
-9.18482e-05
-5.13864e-05
-0.000106825
-2.18739e-05
-0.000111984
-8.06339e-05
-1.21137e-05
5.98678e-05
-3.038e-05
9.03522e-05
-4.91919e-05
9.29906e-05
-6.74302e-05
8.97944e-05
-8.47517e-05
8.46218e-05
-0.000100907
7.79207e-05
-0.000115648
6.9684e-05
-0.00012871
5.98331e-05
-0.000139795
4.82485e-05
-0.000148543
3.47761e-05
-0.000154513
1.92444e-05
-0.000157216
1.54758e-06
-0.000155885
-1.87739e-05
-0.000149741
-4.13916e-05
-0.000137902
-6.60285e-05
-0.000119542
-9.18544e-05
-9.41856e-05
-0.000117204
-6.22985e-05
-0.000138712
-2.70019e-05
-0.000147281
-0.000107636
-1.29582e-05
7.2826e-05
-3.26244e-05
0.000110018
-5.29042e-05
0.00011327
-7.26176e-05
0.000109508
-9.14349e-05
0.000103439
-0.000109134
9.562e-05
-0.000125503
8.60525e-05
-0.000140313
7.46437e-05
-0.000153299
6.12345e-05
-0.000164122
4.55987e-05
-0.000172331
2.74532e-05
-0.000177296
6.51307e-06
-0.000178233
-1.78374e-05
-0.000173962
-4.56627e-05
-0.000163136
-7.68538e-05
-0.000144261
-0.00011073
-0.000116064
-0.000145401
-7.83913e-05
-0.000176385
-3.49809e-05
-0.000190691
-0.000142617
-1.39548e-05
8.67808e-05
-3.5276e-05
0.00013134
-5.72738e-05
0.000135268
-7.86952e-05
0.000130929
-9.92288e-05
0.000123973
-0.000118692
0.000115083
-0.000136924
0.000104285
-0.00015376
9.148e-05
-0.000169
7.64742e-05
-0.000182363
5.89612e-05
-0.000193426
3.85162e-05
-0.000201531
1.46184e-05
-0.0002058
-1.35684e-05
-0.000204696
-4.67672e-05
-0.000196259
-8.52898e-05
-0.000178012
-0.000128977
-0.000147321
-0.000176092
-0.000102548
-0.000221157
-4.79776e-05
-0.000245262
-0.000190594
-1.51086e-05
0.000101889
-3.83488e-05
0.00015458
-6.23081e-05
0.000159227
-8.56486e-05
0.00015427
-0.000108082
0.000146406
-0.000129479
0.00013648
-0.000149753
0.000124558
-0.000168832
0.000110559
-0.000186625
9.42675e-05
-0.00020297
7.53063e-05
-0.000217555
5.31008e-05
-0.000229796
2.6859e-05
-0.000238848
-4.51638e-06
-0.000242823
-4.27915e-05
-0.000239108
-8.90053e-05
-0.000223905
-0.000144181
-0.000192394
-0.000207603
-0.000140004
-0.000273548
-7.09537e-05
-0.000314312
-0.000261548
-1.64375e-05
0.000118327
-4.18834e-05
0.000180026
-6.80424e-05
0.000185386
-9.34864e-05
0.000179714
-0.000117955
0.000170875
-0.000141384
0.00015991
-0.000163788
0.000146962
-0.000185223
0.000131994
-0.000205764
0.000114809
-0.000225451
9.49938e-05
-0.00024421
7.18591e-05
-0.000261687
4.43363e-05
-0.000277116
1.09128e-05
-0.000288837
-3.10705e-05
-0.000293576
-8.4266e-05
-0.000286001
-0.000151756
-0.000258071
-0.000235533
-0.000200321
-0.000331298
-0.000114039
-0.000400593
-0.000375587
-1.79824e-05
0.000136309
-4.59672e-05
0.000208011
-7.45605e-05
0.00021398
-0.000102263
0.000207416
-0.000128837
0.000197448
-0.000154302
0.000185375
-0.000178794
0.000171453
-0.000202534
0.000155734
-0.000225809
0.000138084
-0.000248945
0.000118129
-0.000272243
9.51578e-05
-0.000295865
6.79584e-05
-0.000319565
3.46125e-05
-0.00034258
-8.05573e-06
-0.000361198
-6.56475e-05
-0.000369186
-0.000143768
-0.000354632
-0.000250086
-0.00030056
-0.000385371
-0.000199651
-0.000501502
-0.000575238
-1.98267e-05
0.000156136
-5.07806e-05
0.000238964
-8.20316e-05
0.000245231
-0.000112111
0.000237495
-0.000140781
0.000226118
-0.000168167
0.000212762
-0.000194549
0.000197835
-0.00022034
0.000181525
-0.000246091
0.000163835
-0.000272515
0.000144554
-0.000300501
0.000123144
-0.000331035
9.84925e-05
-0.000364742
6.83193e-05
-0.000401541
2.8743e-05
-0.000440906
-2.62817e-05
-0.000477245
-0.00010743
-0.000496458
-0.000230873
-0.000472234
-0.000409594
-0.00037211
-0.000601626
-0.000947349
-2.20184e-05
0.000178154
-5.65261e-05
0.000273472
-9.06595e-05
0.000279364
-0.000123319
0.000270154
-0.000153997
0.000256797
-0.000183024
0.000241789
-0.000210873
0.000225684
-0.000238144
0.000208796
-0.000265601
0.000191292
-0.000294272
0.000173225
-0.000325616
0.000154488
-0.000361723
0.000134599
-0.000405488
0.000112085
-0.00046029
8.35448e-05
-0.000528703
4.21313e-05
-0.000610754
-2.53785e-05
-0.000698231
-0.000143396
-0.000745836
-0.00036199
-0.000656443
-0.000691019
-0.00160379
-2.63259e-05
0.00020448
-6.476e-05
0.000311906
-0.000101703
0.000316307
-0.000135906
0.000304357
-0.000168022
0.000288913
-0.000198395
0.000272162
-0.000227462
0.000254751
-0.00025577
0.000237103
-0.000284269
0.000219792
-0.000314446
0.000203402
-0.000348435
0.000188477
-0.000389386
0.00017555
-0.000442096
0.000164795
-0.00051371
0.000155158
-0.00061379
0.000142211
-0.000751847
0.000112679
-0.000926504
3.12603e-05
-0.00104798
-0.000240509
-0.000884998
-0.000854006
-0.00248879
-2.33412e-05
0.000227822
-7.01079e-05
0.000358673
-0.000112017
0.000358217
-0.000152802
0.000345141
-0.000187513
0.000323624
-0.000218624
0.000303273
-0.000246986
0.000283113
-0.00027381
0.000263928
-0.000300261
0.000246242
-0.000327684
0.000230825
-0.000358187
0.000218981
-0.000395906
0.000213269
-0.000447939
0.000216828
-0.000526916
0.000234135
-0.000652326
0.000267622
-0.000836913
0.000297266
-0.00107687
0.000271215
-0.00118433
-0.000133049
-0.000795725
-0.00124261
-0.00328451
-5.85848e-05
0.000286406
-9.87074e-05
0.000398795
-0.000136134
0.000395644
-0.00016793
0.000376938
-0.000199247
0.000354941
-0.000229784
0.00033381
-0.000259339
0.000312668
-0.000287557
0.000292145
-0.000314756
0.000273441
-0.000341611
0.000257679
-0.000369763
0.000247133
-0.00040251
0.000246015
-0.000446916
0.000261235
-0.000513163
0.000300381
-0.000627278
0.000381737
-0.000783937
0.000453925
-0.000974904
0.000462181
-0.00102248
-8.54724e-05
-0.000563142
-0.00170195
-0.00384766
-6.15324e-07
0.000287022
-8.46257e-05
0.000482806
-0.000148651
0.000459669
-0.000200605
0.000428891
-0.000238839
0.000393175
-0.000269398
0.000364368
-0.000293993
0.000337263
-0.000314635
0.000312787
-0.00033184
0.000290646
-0.00034655
0.00027239
-0.000356065
0.000256649
-0.00036313
0.00025308
-0.000368177
0.000266282
-0.000375126
0.00030733
-0.000413249
0.00041986
-0.000472562
0.000513238
-0.000571804
0.000561423
-0.000630144
-2.7132e-05
-0.000348362
-0.00198373
-0.00419602
-6.51955e-05
0.000352217
-8.21154e-05
0.000499726
-0.00012366
0.000501214
-0.00018766
0.000492892
-0.000233
0.000438515
-0.000269183
0.000400551
-0.000295386
0.000363467
-0.000312352
0.000329752
-0.000323137
0.000301432
-0.000326302
0.000275555
-0.00032291
0.000253257
-0.000308943
0.000239113
-0.000285257
0.000242596
-0.000237123
0.000259196
-0.000163146
0.000345884
-5.36424e-05
0.000403734
0.000140785
0.000366995
0.000221104
-0.000107451
0.000225514
-0.00198814
-0.0039705
-0.000609205
0.000961422
-0.000638584
0.000529105
-0.000606052
0.000468682
-0.000503896
0.000390735
-0.000396642
0.000331261
-0.000282603
0.000286512
-0.000172946
0.000253809
-6.94774e-05
0.000226284
3.06907e-05
0.000201264
0.000120806
0.000185439
0.000215281
0.000158782
0.000299971
0.000154422
0.000408727
0.00013384
0.000530904
0.000137018
0.000739121
0.000137667
0.00103434
0.000108518
0.0014004
9.30868e-07
0.00161452
-0.000321573
0.00116457
-0.00153818
-0.00280594
0.000961422
0.00149053
0.00195921
0.00234994
0.00268121
0.00296772
0.00322153
0.00344781
0.00364907
0.00383451
0.0039933
0.00414772
0.00428156
0.00441858
0.00455624
0.00466476
0.00466569
0.00434412
0.00280594
)
;

boundaryField
{
    movingWall
    {
        type            calculated;
        value           uniform 0;
    }
    fixedWalls
    {
        type            calculated;
        value           uniform 0;
    }
    frontAndBack
    {
        type            empty;
        value           nonuniform List<scalar> 0();
    }
}


// ************************************************************************* //
