/*--------------------------------*- C++ -*----------------------------------*\
  =========                 |
  \\      /  F ield         | OpenFOAM: The Open Source CFD Toolbox
   \\    /   O peration     | Website:  https://openfoam.org
    \\  /    A nd           | Version:  9
     \\/     M anipulation  |
\*---------------------------------------------------------------------------*/
FoamFile
{
    format      ascii;
    class       volVectorField;
    location    "5";
    object      U;
}
// * * * * * * * * * * * * * * * * * * * * * * * * * * * * * * * * * * * * * //

dimensions      [0 1 -1 0 0 0 0];

internalField   nonuniform List<vector> 
400
(
(-0.000197015 0.000193812 0)
(-0.000948182 0.000351918 0)
(-0.00196975 0.000371065 0)
(-0.00290108 0.00036282 0)
(-0.00380546 0.000346875 0)
(-0.00465161 0.000324862 0)
(-0.00542152 0.000295838 0)
(-0.00609658 0.000258588 0)
(-0.00665603 0.000211919 0)
(-0.00707731 0.000154791 0)
(-0.00733668 8.67313e-05 0)
(-0.00740971 7.72717e-06 0)
(-0.0072727 -8.2852e-05 0)
(-0.00690549 -0.000182343 0)
(-0.00629488 -0.000286912 0)
(-0.00543791 -0.00039091 0)
(-0.00434441 -0.000486363 0)
(-0.00307444 -0.000560267 0)
(-0.00157555 -0.00057776 0)
(-0.000371063 -0.000375164 0)
(-0.000367825 0.000952504 0)
(-0.00156877 0.00152317 0)
(-0.00311797 0.00158078 0)
(-0.00453637 0.00153044 0)
(-0.00589875 0.00144398 0)
(-0.00715875 0.00132896 0)
(-0.00828827 0.00118395 0)
(-0.00926009 0.00100655 0)
(-0.0100455 0.00079434 0)
(-0.0106146 0.000545269 0)
(-0.010937 0.000257837 0)
(-0.0109844 -6.81333e-05 0)
(-0.0107279 -0.000428031 0)
(-0.010143 -0.000813393 0)
(-0.00921633 -0.00121062 0)
(-0.00794701 -0.00159984 0)
(-0.00635192 -0.00195313 0)
(-0.00451065 -0.00222375 0)
(-0.0023632 -0.00228691 0)
(-0.000589992 -0.0015676 0)
(-0.000405923 0.00202655 0)
(-0.00172042 0.0031016 0)
(-0.00340842 0.00319903 0)
(-0.00495234 0.00308563 0)
(-0.00643466 0.00289776 0)
(-0.00780576 0.00265094 0)
(-0.00903646 0.00234419 0)
(-0.0100984 0.00197459 0)
(-0.0109618 0.00153895 0)
(-0.011596 0.00103458 0)
(-0.0119697 0.000459891 0)
(-0.0120485 -0.000183991 0)
(-0.0117986 -0.000890215 0)
(-0.0111917 -0.0016436 0)
(-0.0102078 -0.00241889 0)
(-0.00883899 -0.00317811 0)
(-0.00709562 -0.00386834 0)
(-0.00506098 -0.00439969 0)
(-0.00266601 -0.00453313 0)
(-0.000670526 -0.0031853 0)
(-0.000422384 0.00307818 0)
(-0.0018003 0.00466852 0)
(-0.00357391 0.00480736 0)
(-0.00519655 0.00463441 0)
(-0.0067593 0.00435143 0)
(-0.00821124 0.0039814 0)
(-0.00952393 0.00352325 0)
(-0.0106694 0.00297293 0)
(-0.0116178 0.00232563 0)
(-0.0123369 0.00157679 0)
(-0.0127927 0.000723778 0)
(-0.012949 -0.000231921 0)
(-0.0127638 -0.00128529 0)
(-0.0121956 -0.00241719 0)
(-0.0112105 -0.0035934 0)
(-0.00978566 -0.00475906 0)
(-0.00791742 -0.00583299 0)
(-0.00568902 -0.00667353 0)
(-0.00301966 -0.00691015 0)
(-0.000765288 -0.00490259 0)
(-0.000440934 0.00418993 0)
(-0.00189286 0.0063294 0)
(-0.00376871 0.00651377 0)
(-0.00548667 0.00628155 0)
(-0.00714827 0.0059037 0)
(-0.00870138 0.00541121 0)
(-0.0101191 0.00480296 0)
(-0.0113747 0.00407349 0)
(-0.0124386 0.00321569 0)
(-0.013278 0.00222182 0)
(-0.0138559 0.00108529 0)
(-0.0141304 -0.000196342 0)
(-0.0140503 -0.00162016 0)
(-0.0135588 -0.00316728 0)
(-0.0126009 -0.00479855 0)
(-0.0111277 -0.00644455 0)
(-0.0091071 -0.0079924 0)
(-0.00661496 -0.00923383 0)
(-0.00355395 -0.00963195 0)
(-0.000913442 -0.00689899 0)
(-0.000464699 0.00536341 0)
(-0.00201044 0.00809325 0)
(-0.00401554 0.00832897 0)
(-0.00585373 0.00803896 0)
(-0.00763965 0.00756846 0)
(-0.00931983 0.00695725 0)
(-0.0108699 0.00620426 0)
(-0.0122653 0.00530233 0)
(-0.0134779 0.00424116 0)
(-0.0144754 0.00300815 0)
(-0.0152185 0.00158993 0)
(-0.0156613 -2.47078e-05 0)
(-0.0157408 -0.0018382 0)
(-0.0153793 -0.00384269 0)
(-0.0144933 -0.00599947 0)
(-0.0129946 -0.00822834 0)
(-0.0108023 -0.0103834 0)
(-0.00796526 -0.0121726 0)
(-0.00435937 -0.0128331 0)
(-0.00114737 -0.00930462 0)
(-0.000493686 0.00661312 0)
(-0.00215406 0.00998378 0)
(-0.00431648 0.0102776 0)
(-0.00629971 0.00993108 0)
(-0.00823474 0.00937038 0)
(-0.0100667 0.00864519 0)
(-0.011775 0.00775491 0)
(-0.0133387 0.00669065 0)
(-0.0147336 0.00543824 0)
(-0.01593 0.00397836 0)
(-0.0168893 0.00228765 0)
(-0.0175589 0.000341536 0)
(-0.0178686 -0.001877 0)
(-0.0177205 -0.00438064 0)
(-0.0169886 -0.00714481 0)
(-0.0155285 -0.0100911 0)
(-0.0131803 -0.0130446 0)
(-0.00992187 -0.0156157 0)
(-0.0055852 -0.0167137 0)
(-0.00152778 -0.0123388 0)
(-0.000527628 0.00795455 0)
(-0.00232378 0.0120267 0)
(-0.00467178 0.0123854 0)
(-0.00682356 0.0119825 0)
(-0.00893042 0.0113333 0)
(-0.0109358 0.0104991 0)
(-0.0128247 0.00948076 0)
(-0.0145821 0.00826825 0)
(-0.0161904 0.00684343 0)
(-0.0176261 0.00517914 0)
(-0.0188553 0.00323915 0)
(-0.0198258 0.000980237 0)
(-0.0204628 -0.00164399 0)
(-0.0206471 -0.00467873 0)
(-0.0202062 -0.00813549 0)
(-0.018918 -0.0119636 0)
(-0.0165047 -0.0159791 0)
(-0.0127817 -0.0196958 0)
(-0.00751247 -0.0215383 0)
(-0.00218322 -0.016363 0)
(-0.000566546 0.00940296 0)
(-0.00252063 0.0142477 0)
(-0.00508302 0.0146769 0)
(-0.00742522 0.0142156 0)
(-0.00972366 0.0134777 0)
(-0.0119197 0.0125388 0)
(-0.0140061 0.0114029 0)
(-0.0159763 0.0100604 0)
(-0.017823 0.00848993 0)
(-0.0195345 0.0066564 0)
(-0.0210883 0.00450822 0)
(-0.022442 0.00197638 0)
(-0.0235275 -0.00102415 0)
(-0.0242121 -0.00458587 0)
(-0.024277 -0.00879739 0)
(-0.0234062 -0.0136839 0)
(-0.0211617 -0.0191053 0)
(-0.0170374 -0.0245111 0)
(-0.0107025 -0.0276229 0)
(-0.00340271 -0.0220447 0)
(-0.000611039 0.0109746 0)
(-0.00274769 0.0166741 0)
(-0.00555478 0.0171763 0)
(-0.00810737 0.0166501 0)
(-0.0106133 0.0158197 0)
(-0.0130111 0.0147782 0)
(-0.0153036 0.0135353 0)
(-0.0174956 0.0120844 0)
(-0.0195948 0.0104037 0)
(-0.0216083 0.00845246 0)
(-0.0235357 0.00616561 0)
(-0.0253586 0.00344713 0)
(-0.0270254 0.000162394 0)
(-0.028421 -0.00385464 0)
(-0.0293102 -0.00882808 0)
(-0.0292782 -0.0149233 0)
(-0.0276943 -0.0221615 0)
(-0.0234937 -0.0300224 0)
(-0.0163477 -0.0352659 0)
(-0.00592339 -0.0307114 0)
(-0.000662769 0.0126887 0)
(-0.00301178 0.019337 0)
(-0.00609695 0.0199072 0)
(-0.00887753 0.0193032 0)
(-0.0116023 0.0183698 0)
(-0.0142049 0.0172228 0)
(-0.0167005 0.0158809 0)
(-0.0191086 0.014344 0)
(-0.0214555 0.0125942 0)
(-0.0237731 0.0105897 0)
(-0.0260941 0.00825581 0)
(-0.0284457 0.00546928 0)
(-0.0308299 0.00204016 0)
(-0.0332044 -0.00228986 0)
(-0.0353573 -0.00786459 0)
(-0.0368286 -0.0151491 0)
(-0.0368283 -0.0245545 0)
(-0.0334726 -0.035816 0)
(-0.026959 -0.0445533 0)
(-0.0116619 -0.0449672 0)
(-0.000724973 0.0145672 0)
(-0.00332709 0.0222738 0)
(-0.00672934 0.0228965 0)
(-0.00975139 0.0221962 0)
(-0.0127009 0.0211369 0)
(-0.015501 0.0198701 0)
(-0.0181831 0.0184295 0)
(-0.0207833 0.0168259 0)
(-0.0233503 0.0150515 0)
(-0.0259482 0.013075 0)
(-0.0286585 0.0108313 0)
(-0.0315778 0.00820026 0)
(-0.0347899 0.0049712 0)
(-0.0383356 0.000774615 0)
(-0.0422039 -0.0049712 0)
(-0.0461541 -0.0131031 0)
(-0.0493722 -0.0247045 0)
(-0.0490193 -0.0403002 0)
(-0.0469154 -0.0546066 0)
(-0.0246318 -0.0698297 0)
(-0.000798555 0.0166662 0)
(-0.0037049 0.0254646 0)
(-0.00747597 0.0260897 0)
(-0.0107533 0.0252124 0)
(-0.013936 0.0240174 0)
(-0.0169135 0.0226448 0)
(-0.0197457 0.0211268 0)
(-0.0224875 0.01948 0)
(-0.0252071 0.0177152 0)
(-0.0279929 0.015823 0)
(-0.0309663 0.0137575 0)
(-0.0343012 0.0114161 0)
(-0.0382512 0.00859708 0)
(-0.0431493 0.00489769 0)
(-0.0492964 -0.000410762 0)
(-0.056962 -0.00843169 0)
(-0.0659551 -0.0209534 0)
(-0.0723109 -0.0402527 0)
(-0.0800764 -0.062912 0)
(-0.0456438 -0.116122 0)
(-0.00100389 0.0189604 0)
(-0.00435682 0.029584 0)
(-0.00846851 0.0300931 0)
(-0.0119546 0.0292372 0)
(-0.0152773 0.0277102 0)
(-0.0183936 0.0260064 0)
(-0.0213496 0.0242091 0)
(-0.0241972 0.0223956 0)
(-0.0270111 0.0206109 0)
(-0.0299131 0.0188821 0)
(-0.0330788 0.0172246 0)
(-0.0367598 0.0156263 0)
(-0.0413421 0.0139917 0)
(-0.047413 0.0120411 0)
(-0.0557631 0.00907807 0)
(-0.0675966 0.00373836 0)
(-0.0841079 -0.00654763 0)
(-0.0987038 -0.030205 0)
(-0.117444 -0.0725411 0)
(-0.0506378 -0.19958 0)
(-0.000546217 0.0220054 0)
(-0.00429832 0.0320592 0)
(-0.00943802 0.0324667 0)
(-0.0132379 0.0307514 0)
(-0.017165 0.0292526 0)
(-0.0204056 0.0276985 0)
(-0.0233494 0.0261445 0)
(-0.0260794 0.0245575 0)
(-0.0287124 0.0229761 0)
(-0.0313657 0.021463 0)
(-0.0341996 0.0201217 0)
(-0.0374996 0.019087 0)
(-0.041785 0.0184991 0)
(-0.0480099 0.0184211 0)
(-0.0576643 0.0187002 0)
(-0.0728203 0.0180195 0)
(-0.0972656 0.0123434 0)
(-0.113627 -0.0192639 0)
(-0.132969 -0.102177 0)
(-0.0157787 -0.300032 0)
(-0.00329976 0.0229587 0)
(-0.00821689 0.0408262 0)
(-0.0116724 0.0402638 0)
(-0.0153747 0.0397094 0)
(-0.0183862 0.0367899 0)
(-0.0215506 0.0341625 0)
(-0.0245256 0.0315036 0)
(-0.027393 0.0290697 0)
(-0.0301279 0.0269441 0)
(-0.0327869 0.0252455 0)
(-0.0354693 0.0241173 0)
(-0.0383871 0.0239707 0)
(-0.0419942 0.0252518 0)
(-0.0471162 0.028799 0)
(-0.0554658 0.0353841 0)
(-0.0684281 0.0416311 0)
(-0.0918451 0.0423685 0)
(-0.0989206 -0.00652714 0)
(-0.115295 -0.149297 0)
(0.0118973 -0.367027 0)
(0.00258344 0.0360099 0)
(-0.00277119 0.0373798 0)
(-0.0134905 0.0373797 0)
(-0.0169237 0.0335573 0)
(-0.0226103 0.0322392 0)
(-0.0254788 0.0307701 0)
(-0.0282795 0.0294372 0)
(-0.0304977 0.0279982 0)
(-0.0323684 0.0265956 0)
(-0.0339459 0.0252919 0)
(-0.035112 0.024422 0)
(-0.0358806 0.0243222 0)
(-0.0362856 0.0260078 0)
(-0.0363817 0.0299777 0)
(-0.0394323 0.0390526 0)
(-0.0405767 0.0469535 0)
(-0.0571738 0.046429 0)
(-0.0595268 -0.0127845 0)
(-0.0740157 -0.198753 0)
(0.0127893 -0.417488 0)
(-0.00213453 0.0183575 0)
(-0.0100221 0.0614296 0)
(-0.00713358 0.0565599 0)
(-0.016995 0.0552453 0)
(-0.0210527 0.0491155 0)
(-0.0256254 0.0446364 0)
(-0.0284918 0.0402115 0)
(-0.030601 0.0364588 0)
(-0.0319296 0.0331239 0)
(-0.0325422 0.0306147 0)
(-0.0325476 0.0280667 0)
(-0.031562 0.0274078 0)
(-0.0301383 0.0283007 0)
(-0.0256059 0.0325393 0)
(-0.0226582 0.0466784 0)
(-0.00833203 0.0569807 0)
(-0.00340212 0.0685029 0)
(0.0294385 0.00750847 0)
(0.0092548 -0.207571 0)
(0.0446242 -0.434159 0)
(-0.073827 0.0581891 0)
(-0.0524472 0.0351235 0)
(-0.0714286 0.0405316 0)
(-0.0522256 0.0390741 0)
(-0.0468527 0.0348879 0)
(-0.0333169 0.0320535 0)
(-0.0228339 0.0295326 0)
(-0.0119633 0.0269002 0)
(-0.00165527 0.0249863 0)
(0.00752118 0.0224586 0)
(0.0171717 0.0209709 0)
(0.0255489 0.018897 0)
(0.0342236 0.0188542 0)
(0.0498827 0.0187 0)
(0.0535874 0.0203274 0)
(0.0982255 0.021443 0)
(0.103236 0.000664698 0)
(0.167567 -0.0322615 0)
(0.139411 -0.206178 0)
(0.117976 -0.384726 0)
(0.0862881 0.122284 0)
(0.116568 0.0744079 0)
(0.172697 0.0566112 0)
(0.217749 0.0428941 0)
(0.251651 0.0345846 0)
(0.284757 0.0281292 0)
(0.307712 0.0236716 0)
(0.337406 0.020492 0)
(0.350999 0.0170279 0)
(0.380214 0.0163001 0)
(0.385378 0.0120652 0)
(0.41559 0.0132562 0)
(0.412107 0.00901813 0)
(0.447062 0.00933409 0)
(0.432979 0.00898811 0)
(0.473296 0.00229116 0)
(0.446676 0.000123374 0)
(0.469208 -0.0224669 0)
(0.375008 -0.0734348 0)
(0.231405 -0.130435 0)
)
;

boundaryField
{
    movingWall
    {
        type            fixedValue;
        value           uniform (1 0 0);
    }
    fixedWalls
    {
        type            noSlip;
    }
    frontAndBack
    {
        type            empty;
    }
}


// ************************************************************************* //
