/*--------------------------------*- C++ -*----------------------------------*\
  =========                 |
  \\      /  F ield         | OpenFOAM: The Open Source CFD Toolbox
   \\    /   O peration     | Website:  https://openfoam.org
    \\  /    A nd           | Version:  9
     \\/     M anipulation  |
\*---------------------------------------------------------------------------*/
FoamFile
{
    format      ascii;
    class       volScalarField;
    location    "4";
    object      p;
}
// * * * * * * * * * * * * * * * * * * * * * * * * * * * * * * * * * * * * * //

dimensions      [0 2 -2 0 0 0 0];

internalField   nonuniform List<scalar> 
8000
(
-5.90255e-09
-7.83516e-06
1.27402e-05
5.00478e-05
0.000106434
0.000181959
0.000276511
0.00038965
0.000520378
0.000667001
0.000826937
0.000996538
0.00117105
0.00134457
0.00151016
0.00166022
0.0017869
0.00188232
0.00194473
0.00195512
-6.86468e-07
-6.65867e-06
1.41112e-05
5.04033e-05
0.000105312
0.000179108
0.000271859
0.000383298
0.000512608
0.000658257
0.000817742
0.000987496
0.00116309
0.00133848
0.00150663
0.00165967
0.00178942
0.00188754
0.00195232
0.001963
-2.83412e-05
-3.48859e-05
-1.44378e-05
2.10912e-05
7.52364e-05
0.000148478
0.000241135
0.00035321
0.000484161
0.000632705
0.000796674
0.000972835
0.00115647
0.00134146
0.00152036
0.00168467
0.00182522
0.00193236
0.00200367
0.00201563
-7.41201e-05
-8.18686e-05
-6.22664e-05
-2.79755e-05
2.50282e-05
9.75124e-05
0.000190174
0.000303437
0.000437203
0.000590633
0.000761896
0.000947975
0.00114461
0.00134541
0.00154228
0.00172549
0.00188434
0.00200695
0.00208962
0.00210484
-0.000141318
-0.000150852
-0.000132581
-0.000100045
-4.85978e-05
2.28942e-05
0.000115634
0.000230618
0.000368365
0.000528667
0.00071029
0.000910655
0.00112582
0.00134925
0.00157224
0.0017836
0.00197021
0.00211675
0.00221718
0.00223804
-0.000230477
-0.000242422
-0.000226098
-0.000196126
-0.000147055
-7.72911e-05
1.50173e-05
0.000131613
0.000273836
0.00044234
0.000636732
0.00085513
0.00109443
0.00134801
0.00160657
0.00185723
0.00208367
0.00226552
0.0023927
0.00242304
-0.000342132
-0.000357234
-0.000343702
-0.000317502
-0.000272162
-0.00020552
-0.000114918
2.32448e-06
0.000148603
0.00032573
0.000534503
0.000773937
0.00104275
0.00133425
0.00163909
0.00194268
0.00222484
0.00245805
0.00262518
0.00267173
-0.00047682
-0.000495991
-0.000486389
-0.000465658
-0.000426056
-0.000364742
-0.000278079
-0.000162256
-1.35711e-05
0.000171298
0.000394967
0.000659047
0.000960063
0.00129685
0.00165974
0.00203277
0.00239156
0.00269934
0.00292638
0.00300173
-0.000635004
-0.000659361
-0.000655172
-0.000642181
-0.000611084
-0.000558257
-0.00047892
-0.000367942
-0.000220112
-3.03388e-05
0.00020602
0.000492527
0.000830323
0.00121929
0.00165239
0.00211414
0.00257651
0.00299295
0.00331065
0.0034391
-0.000817064
-0.000847971
-0.000851029
-0.000848694
-0.000829719
-0.0007896
-0.000722265
-0.00062113
-0.000479313
-0.000289733
-4.52719e-05
0.000260853
0.000634763
0.00107855
0.00159199
0.00216313
0.00276248
0.00333669
0.00379335
0.00402422
-0.00102333
-0.00106243
-0.00107487
-0.0010868
-0.00108446
-0.00106238
-0.00101307
-0.000928433
-0.000799917
-0.000618448
-0.00037428
-5.69455e-05
0.00034545
0.000840862
0.00144006
0.00213911
0.00291347
0.00371303
0.00438291
0.00481961
-0.00125438
-0.00130364
-0.00132763
-0.00135811
-0.00137775
-0.00138009
-0.00135609
-0.00129613
-0.00119018
-0.00102745
-0.000795716
-0.000480362
-6.34313e-05
0.0004758
0.00114801
0.00197879
0.00296033
0.00407172
0.00505304
0.00593358
-0.0015107
-0.00157269
-0.00161018
-0.00166439
-0.00171202
-0.00174599
-0.00175553
-0.00172956
-0.00165713
-0.0015268
-0.00132575
-0.00103813
-0.000643172
-0.000108528
0.000607854
0.00154805
0.00275291
0.00428971
0.00572029
0.00749738
-0.00179906
-0.0018718
-0.00192235
-0.0020038
-0.00208667
-0.00216158
-0.0022143
-0.00223201
-0.00220376
-0.00211856
-0.00196348
-0.00172147
-0.00136654
-0.000852631
-8.04453e-05
0.000872949
0.00220068
0.00418765
0.00613834
0.00956077
-0.00211809
-0.00224871
-0.00229546
-0.0024325
-0.0025455
-0.00265405
-0.0027454
-0.0028086
-0.00283296
-0.00280936
-0.00273034
-0.00258719
-0.00236756
-0.00205023
-0.00160055
-0.000750569
0.000414759
0.00297015
0.00538067
0.0117501
-0.00251558
-0.0024591
-0.00254394
-0.00266419
-0.00285005
-0.00304998
-0.00323992
-0.00339444
-0.00349828
-0.00354569
-0.00354017
-0.00348678
-0.00339162
-0.00324708
-0.00302689
-0.00254623
-0.00188471
0.000670764
0.00216456
0.0121607
-0.0028167
-0.00335493
-0.00328725
-0.00365314
-0.00379263
-0.00398027
-0.00414125
-0.0042761
-0.00438264
-0.00446001
-0.00452245
-0.00459275
-0.00470784
-0.00492967
-0.00532653
-0.00560403
-0.00697042
-0.00519405
-0.00569382
0.0101304
-0.00438486
-0.00304148
-0.00321015
-0.00320585
-0.00353944
-0.00390742
-0.00428867
-0.00461851
-0.00488247
-0.00506543
-0.00521226
-0.00534343
-0.00556978
-0.00593691
-0.00685805
-0.00765442
-0.0111427
-0.0103072
-0.0114849
0.0115353
-0.00318324
-0.00554252
-0.00490013
-0.00566647
-0.00564749
-0.00587092
-0.0060104
-0.00612305
-0.00621953
-0.00627578
-0.00632738
-0.0064645
-0.00667731
-0.0073376
-0.0088573
-0.0104088
-0.0166377
-0.0170557
-0.0156446
0.022414
-0.0152189
-0.00320271
-0.0032032
-0.00342137
-0.0038423
-0.00438965
-0.00497071
-0.00541433
-0.00581075
-0.00599206
-0.00622722
-0.00630511
-0.00667261
-0.00698341
-0.00811503
-0.00847985
-0.00922668
-0.000371896
0.0219934
0.0891638
-1.85951e-06
-1.03517e-05
1.0692e-05
4.79722e-05
0.000104509
0.000180295
0.000275207
0.000388811
0.000520132
0.000667455
0.000828168
0.000998654
0.00117415
0.00134872
0.00151538
0.00166641
0.00179383
0.00188941
0.0019517
0.00195805
3.49375e-06
-5.13109e-06
1.57078e-05
5.16778e-05
0.000106406
0.000180069
0.000272725
0.000384123
0.000513464
0.000659231
0.000818953
0.000989072
0.0011651
0.00134103
0.00150977
0.00166339
0.00179356
0.00189161
0.00195626
0.00196272
-2.26655e-05
-3.25043e-05
-1.21766e-05
2.29159e-05
7.68102e-05
0.000149861
0.000242369
0.000354354
0.000485295
0.000633932
0.000798095
0.000974597
0.00115868
0.00134425
0.00152383
0.0016888
0.00182986
0.00193695
0.00200815
0.00201552
-6.72292e-05
-7.85644e-05
-5.91479e-05
-2.53699e-05
2.73187e-05
9.95495e-05
0.000192001
0.000305112
0.000438812
0.000592285
0.000763726
0.000950167
0.00114728
0.00134872
0.00154632
0.00173031
0.00188978
0.00201238
0.00209494
0.00210499
-0.000133426
-0.000146816
-0.000128742
-9.67579e-05
-4.56549e-05
2.55611e-05
0.000118073
0.000232897
0.00037058
0.000530944
0.000712792
0.000913601
0.00112934
0.00135357
0.0015775
0.00178988
0.00197735
0.00212403
0.00222439
0.00223938
-0.000221489
-0.000237605
-0.000221464
-0.000192069
-0.000143359
-7.38794e-05
1.82025e-05
0.000134651
0.000276838
0.000445454
0.000640161
0.000859183
0.00109922
0.00135386
0.00161373
0.00186583
0.00209359
0.00227591
0.00240317
0.00242677
-0.000331802
-0.000351453
-0.000338076
-0.000312482
-0.000267519
-0.000201172
-0.000110795
6.31947e-06
0.000152601
0.000329908
0.000539117
0.000779579
0.00104924
0.00134223
0.00164899
0.0019548
0.00223912
0.00247352
0.00264113
0.00267996
-0.000464792
-0.000488967
-0.000479487
-0.000459405
-0.000420209
-0.000359213
-0.000272785
-0.000157077
-8.3485e-06
0.000176761
0.000400838
0.000665085
0.000968538
0.00130767
0.00167349
0.0020501
0.00241266
0.00272317
0.00295167
0.00301863
-0.000620794
-0.000650701
-0.000646601
-0.000634333
-0.000603707
-0.000551256
-0.000472191
-0.000361334
-0.000213412
-2.32594e-05
0.000213825
0.000501656
0.000841731
0.0012339
0.00167147
0.00213907
0.00260825
0.00303076
0.00335226
0.00347431
-0.000800003
-0.000837119
-0.000840249
-0.000838769
-0.000820397
-0.000780783
-0.00071382
-0.000612854
-0.00047091
-0.000280759
-3.50177e-05
0.000273451
0.00064931
0.00109776
0.00161809
0.00219889
0.00281057
0.00339827
0.00386388
0.00409892
-0.00100244
-0.00104856
-0.00106111
-0.00107414
-0.00107266
-0.00105134
-0.00100263
-0.000918321
-0.000789744
-0.000607659
-0.000362099
-4.24125e-05
0.000362938
0.000865861
0.00147518
0.00218984
0.00298592
0.00381398
0.00450527
0.00498251
-0.00122814
-0.00128549
-0.00130972
-0.00134174
-0.00136275
-0.00136637
-0.00134342
-0.00128414
-0.00117835
-0.00101504
-0.000781664
-0.000462966
-3.91001e-05
0.000501185
0.00118968
0.00204569
0.00306471
0.00423212
0.00526285
0.00629718
-0.00147609
-0.00154816
-0.00158634
-0.00164315
-0.00169306
-0.00172918
-0.00174058
-0.00171598
-0.00164422
-0.0015137
-0.00131137
-0.00102137
-0.000623962
-8.45559e-05
0.000656985
0.00163492
0.00289955
0.00453793
0.00605213
0.00829294
-0.00175182
-0.00183433
-0.0018874
-0.00197238
-0.00206026
-0.00213997
-0.00219682
-0.00221749
-0.00219085
-0.00210574
-0.00194885
-0.00170227
-0.00133772
-0.000809193
-6.10013e-05
0.00094716
0.00234151
0.00449505
0.00652979
0.0109846
-0.00204862
-0.00220769
-0.00225393
-0.00240273
-0.00252119
-0.00263523
-0.00273103
-0.00279793
-0.0028251
-0.00280303
-0.00272431
-0.00257952
-0.00235562
-0.00202653
-0.00153931
-0.000750273
0.000441111
0.00311976
0.00517144
0.0131981
-0.00239943
-0.00235956
-0.00245617
-0.00258476
-0.00278974
-0.00300585
-0.00321138
-0.00337819
-0.00349163
-0.00354423
-0.00353986
-0.00348422
-0.00338491
-0.0032389
-0.00303159
-0.00261853
-0.00225171
8.86209e-05
-0.000581334
0.0115437
-0.00256865
-0.00320965
-0.00318386
-0.00360985
-0.00377242
-0.00398763
-0.00416545
-0.00431253
-0.00442644
-0.00450655
-0.00456732
-0.00463557
-0.00474835
-0.00499593
-0.00546976
-0.00594417
-0.00822306
-0.00711624
-0.0110055
0.00637729
-0.00407017
-0.0028309
-0.00299157
-0.00300605
-0.00340512
-0.00383223
-0.00426726
-0.00463707
-0.00493101
-0.00512699
-0.00527751
-0.00539888
-0.00561735
-0.00599302
-0.00703723
-0.00813712
-0.0126402
-0.0135997
-0.0172449
0.00839351
-0.00157328
-0.00479028
-0.00448901
-0.0055635
-0.00568928
-0.00604484
-0.00626896
-0.00643205
-0.00654606
-0.0065994
-0.00659444
-0.006713
-0.0068114
-0.00742588
-0.00913099
-0.01063
-0.0180637
-0.0205153
-0.0177332
0.0236791
-0.0141907
-0.00237821
-0.0024034
-0.00295234
-0.00360572
-0.00427282
-0.00495822
-0.00547167
-0.0059489
-0.00611554
-0.00638066
-0.00639862
-0.00676499
-0.00705108
-0.00820497
-0.00885743
-0.00904511
-0.00055652
0.0286407
0.104986
-1.47394e-06
-1.00427e-05
1.12642e-05
4.85678e-05
0.000105129
0.000180967
0.000275972
0.000389724
0.000521253
0.000668864
0.000829974
0.00100095
0.00117701
0.00135217
0.00151944
0.00167102
0.00179887
0.00189462
0.00195694
0.00196227
5.53253e-06
-3.63037e-06
1.72821e-05
5.31399e-05
0.000107789
0.000181396
0.000274032
0.000385458
0.000514891
0.000660825
0.000820807
0.000991286
0.00116775
0.00134418
0.00151346
0.00166758
0.00179814
0.00189634
0.00196103
0.00196649
-1.97716e-05
-3.03884e-05
-1.01131e-05
2.47922e-05
7.85588e-05
0.000151512
0.000243962
0.000355946
0.00048696
0.000635759
0.000800184
0.000977064
0.00116163
0.00134776
0.00152796
0.00169354
0.00183509
0.0019424
0.0020137
0.00201996
-6.3513e-05
-7.57488e-05
-5.64531e-05
-2.29267e-05
2.95853e-05
0.000101677
0.000194034
0.000307115
0.000440864
0.000594491
0.000766207
0.000953073
0.00115074
0.00135285
0.00155122
0.00173599
0.00189613
0.00201911
0.00210186
0.00211073
-0.000128919
-0.000143307
-0.00012539
-9.37057e-05
-4.28197e-05
2.82227e-05
0.000120615
0.000235392
0.000373125
0.000533665
0.000715843
0.000917168
0.0011336
0.0013587
0.00158367
0.00179713
0.00198562
0.00213295
0.00223371
0.00224742
-0.00021608
-0.000233296
-0.000217336
-0.00018829
-0.000139839
-7.05712e-05
2.13609e-05
0.000137747
0.000279988
0.000448814
0.000643928
0.000863609
0.00110455
0.00136038
0.0016217
0.00187541
0.00210475
0.00228825
0.00241632
0.00243859
-0.000325278
-0.000346148
-0.000332979
-0.000307793
-0.000263147
-0.000197068
-0.000106888
1.0133e-05
0.000156464
0.00033401
0.000543707
0.000785007
0.00105587
0.00135051
0.00165937
0.00196762
0.00225449
0.00249102
0.00266024
0.00269794
-0.000456833
-0.000482372
-0.00047314
-0.000453554
-0.000414765
-0.000354129
-0.000267981
-0.000152431
-3.68565e-06
0.000181666
0.00040624
0.000671223
0.00097656
0.00131805
0.00168691
0.00206724
0.00243396
0.00274835
0.00297994
0.00304674
-0.000610942
-0.000642396
-0.000638609
-0.000626973
-0.000596902
-0.000544967
-0.000466329
-0.000355752
-0.000207891
-1.75068e-05
0.000220139
0.000508338
0.000851267
0.00124659
0.00168846
0.00216167
0.00263757
0.00306707
0.00339441
0.00351904
-0.0007876
-0.000826495
-0.000830049
-0.000829422
-0.000811848
-0.000773011
-0.000706731
-0.000606272
-0.000464561
-0.00027425
-2.77623e-05
0.000282781
0.000660112
0.0011125
0.00163878
0.00222784
0.00285013
0.00345017
0.00392663
0.00417167
-0.000986507
-0.00103471
-0.00104788
-0.00106212
-0.00106185
-0.00104174
-0.000994143
-0.000910737
-0.000782734
-0.000600756
-0.000354666
-3.35924e-05
0.000373986
0.0008818
0.00149881
0.00222508
0.0030372
0.00388605
0.00459667
0.00510175
-0.0012072
-0.00126705
-0.00129222
-0.00132606
-0.00134894
-0.00135449
-0.00133336
-0.00127564
-0.00117101
-0.00100831
-0.000774775
-0.000454889
-2.87417e-05
0.000515899
0.00121329
0.00208447
0.00312637
0.00432686
0.00539127
0.0064934
-0.00144777
-0.00152305
-0.00156272
-0.0016224
-0.00167525
-0.00171443
-0.00172879
-0.00170683
-0.0016372
-0.00150813
-0.00130645
-0.0010161
-0.000616454
-7.19287e-05
0.00067589
0.00167099
0.002965
0.00465389
0.00621657
0.00860872
-0.00171242
-0.00179838
-0.00185403
-0.00194318
-0.00203601
-0.00212096
-0.00218291
-0.00220807
-0.00218507
-0.00210248
-0.00194696
-0.00170044
-0.00133196
-0.000777714
-5.10146e-05
0.000968915
0.00238793
0.00460533
0.00669176
0.0114241
-0.00199261
-0.0021602
-0.00220971
-0.00236761
-0.00249318
-0.00261456
-0.00271727
-0.00279049
-0.00282315
-0.00280541
-0.00272995
-0.00258796
-0.00236909
-0.00206656
-0.00155594
-0.000776384
0.000408755
0.00313485
0.00512481
0.0135862
-0.00231832
-0.00228776
-0.00238862
-0.00252541
-0.00274182
-0.00297009
-0.00318858
-0.00336743
-0.00349064
-0.00355088
-0.00355212
-0.00350079
-0.00340671
-0.00327164
-0.00307967
-0.00270657
-0.00242076
-0.000134946
-0.00104884
0.0113713
-0.00242319
-0.00308232
-0.00307855
-0.00353069
-0.00371607
-0.00395353
-0.00415414
-0.0043197
-0.00444744
-0.00453693
-0.00460354
-0.00467666
-0.0047955
-0.00506256
-0.00557962
-0.00613174
-0.00866383
-0.00791099
-0.0117577
0.00555577
-0.00392833
-0.00270843
-0.0028604
-0.00288849
-0.00331118
-0.00376819
-0.00423463
-0.00463247
-0.00494995
-0.00516137
-0.00532165
-0.00544623
-0.00566957
-0.00605718
-0.00715261
-0.00839718
-0.0131031
-0.0149399
-0.0179379
0.00814539
-0.00113308
-0.00441845
-0.00419614
-0.00533486
-0.00553137
-0.00596875
-0.0062628
-0.00648071
-0.00663318
-0.0067096
-0.00670325
-0.00682291
-0.00689442
-0.00750994
-0.00929273
-0.0108754
-0.0185593
-0.0213087
-0.0166781
0.0255368
-0.013946
-0.00208879
-0.00210139
-0.00271668
-0.00344404
-0.00417614
-0.00492476
-0.00548089
-0.00599949
-0.00617833
-0.00645394
-0.00645867
-0.00681847
-0.0071311
-0.00824594
-0.00896183
-0.0086074
0.000298033
0.0321852
0.110247
-1.06817e-07
-9.01517e-06
1.23268e-05
4.95748e-05
0.000106128
0.000182007
0.000277109
0.000391023
0.000522787
0.00067072
0.000832234
0.0010037
0.00118031
0.00135609
0.00152397
0.00167613
0.00180441
0.00190038
0.00196277
0.00196751
7.8057e-06
-1.78651e-06
1.90868e-05
5.48247e-05
0.000109398
0.000182968
0.000275613
0.00038711
0.000516687
0.000662852
0.00082316
0.000994058
0.00117102
0.00134803
0.00151789
0.00167258
0.00180358
0.001902
0.00196677
0.00197158
-1.68431e-05
-2.79852e-05
-7.81858e-06
2.69053e-05
8.05517e-05
0.000153431
0.000245861
0.000357891
0.000489031
0.000638055
0.000802812
0.00098014
0.00116526
0.00135203
0.00153292
0.00169918
0.0018413
0.00194893
0.00202038
0.00202594
-5.98181e-05
-7.26477e-05
-5.35101e-05
-2.02208e-05
3.21216e-05
0.000104094
0.00019639
0.000309484
0.000443343
0.000597193
0.000769267
0.000956641
0.00115496
0.00135786
0.00155711
0.00174276
0.0019037
0.00202719
0.00211025
0.00211841
-0.000124412
-0.000139453
-0.000121731
-9.0334e-05
-3.96633e-05
3.12181e-05
0.000123515
0.000238284
0.000376122
0.00053691
0.000719506
0.000921448
0.0011387
0.00136484
0.00159099
0.00180573
0.00199541
0.0021436
0.00224497
0.00225803
-0.000210624
-0.000228553
-0.000212823
-0.000184118
-0.000135934
-6.68755e-05
2.49217e-05
0.000141275
0.00028362
0.000452727
0.000648343
0.0008688
0.00111081
0.00136804
0.00163104
0.00188663
0.00211784
0.00230285
0.00243204
0.00245385
-0.000318639
-0.000340295
-0.000327398
-0.000302623
-0.000258315
-0.000192515
-0.000102531
1.44135e-05
0.000160835
0.00033869
0.000548981
0.000791246
0.00106353
0.0013601
0.00167137
0.00198244
0.00227229
0.00251147
0.00268276
0.00272054
-0.000448669
-0.000475084
-0.000466184
-0.000447112
-0.000408771
-0.000348527
-0.000262679
-0.000147287
1.50192e-06
0.000187167
0.000412399
0.000678501
0.000985762
0.0013299
0.00170222
0.00208679
0.00245829
0.00277733
0.00301277
0.00308096
-0.000600767
-0.000633211
-0.00062985
-0.000618887
-0.000589436
-0.000538078
-0.000459917
-0.000349649
-0.000201847
-1.11797e-05
0.000227196
0.000516744
0.000862054
0.00126087
0.00170758
0.00218714
0.00267068
0.00310833
0.00344279
0.00357198
-0.000774713
-0.00081475
-0.000818881
-0.000819177
-0.000802505
-0.000764546
-0.000699039
-0.000599151
-0.000457705
-0.000267215
-1.99121e-05
0.000292345
0.000672227
0.00112894
0.00166181
0.00226011
0.00289437
0.0035086
0.00399828
0.00425528
-0.000969887
-0.00101944
-0.00103343
-0.001049
-0.00105008
-0.00103134
-0.000984996
-0.00090261
-0.000775259
-0.000593408
-0.00034672
-2.40585e-05
0.000386394
0.000899255
0.0015248
0.002264
0.00309428
0.00396708
0.00470178
0.00523785
-0.00118529
-0.00124682
-0.00127321
-0.00130903
-0.00133399
-0.00134168
-0.00132259
-0.00126663
-0.0011633
-0.00100129
-0.000767673
-0.000446677
-1.79725e-05
0.000531379
0.00123921
0.0021273
0.00319511
0.00443391
0.00554173
0.00671757
-0.00141825
-0.00149573
-0.00153724
-0.0016
-0.0016561
-0.00169866
-0.00171629
-0.00169723
-0.00162993
-0.00150252
-0.00130185
-0.00101168
-0.000611751
-6.70778e-05
0.000693619
0.00170798
0.00303507
0.00478232
0.0064151
0.00897168
-0.00167154
-0.00176006
-0.00181868
-0.00191237
-0.00201047
-0.00210104
-0.00216843
-0.00219839
-0.00217923
-0.0020997
-0.00194632
-0.00170125
-0.00133577
-0.000805262
-4.97921e-05
0.000986447
0.0024353
0.0047244
0.00690564
0.0119518
-0.00193556
-0.00211078
-0.00216391
-0.00233102
-0.00246404
-0.0025932
-0.00270309
-0.00278293
-0.00282146
-0.00280883
-0.00273776
-0.00259942
-0.00238147
-0.00205772
-0.00158437
-0.000821388
0.000358721
0.003124
0.00517454
0.0141293
-0.00223339
-0.00220952
-0.00231689
-0.00246363
-0.00269263
-0.00293448
-0.00316609
-0.00335722
-0.00349113
-0.00356009
-0.00356853
-0.00352394
-0.00343804
-0.00331542
-0.00315886
-0.00284113
-0.00266424
-0.000470161
-0.00153407
0.0114572
-0.00228996
-0.00297725
-0.00298389
-0.00346437
-0.00366897
-0.00393085
-0.00414696
-0.00432717
-0.00446734
-0.00456667
-0.00464154
-0.004724
-0.004857
-0.00515534
-0.00573918
-0.00641019
-0.00921945
-0.00885445
-0.0128445
0.00500773
-0.00375541
-0.00255926
-0.00271882
-0.00276929
-0.00321836
-0.00370469
-0.00420121
-0.00462605
-0.00496674
-0.00519475
-0.00536783
-0.00550281
-0.00574398
-0.00616648
-0.00735341
-0.00876631
-0.0138452
-0.0163355
-0.0191845
0.00777219
-0.000814587
-0.00420864
-0.00399847
-0.00520301
-0.00544327
-0.00592685
-0.00626147
-0.00651479
-0.00669587
-0.00679142
-0.00679056
-0.00691959
-0.00698419
-0.00763014
-0.00950007
-0.0111958
-0.0193481
-0.0223917
-0.0172807
0.0269642
-0.0135988
-0.00175651
-0.00179075
-0.00246575
-0.00326641
-0.0040652
-0.00487292
-0.00547414
-0.00603764
-0.00623678
-0.00652655
-0.00653678
-0.00689912
-0.00723794
-0.00836961
-0.00913599
-0.00874585
0.00022697
0.0330322
0.113952
1.56039e-06
-7.45601e-06
1.38852e-05
5.10987e-05
0.000107639
0.00018353
0.000278684
0.000392706
0.000524644
0.000672826
0.000834671
0.00100654
0.00118364
0.00135994
0.00152837
0.00168105
0.00180977
0.00190601
0.00196857
0.00197316
9.85829e-06
1.13587e-07
2.09574e-05
5.66277e-05
0.000111158
0.000184712
0.000277382
0.000388959
0.000518683
0.000665075
0.000825697
0.000996999
0.00117445
0.00135199
0.00152243
0.00167766
0.00180914
0.00190787
0.00197285
0.00197753
-1.43583e-05
-2.56881e-05
-5.58637e-06
2.90347e-05
8.26082e-05
0.000155447
0.000247882
0.000359977
0.000491261
0.000640519
0.000805613
0.000983385
0.00116905
0.00135645
0.00153803
0.00170496
0.00184769
0.00195575
0.0020275
0.00203295
-5.67505e-05
-6.97975e-05
-5.07595e-05
-1.76136e-05
3.46182e-05
0.000106515
0.000198788
0.000311929
0.000445924
0.00060002
0.000772468
0.000960358
0.00115934
0.00136303
0.00156315
0.00174971
0.00191149
0.00203563
0.00211916
0.00212728
-0.00012065
-0.000135939
-0.000118349
-8.71386e-05
-3.6621e-05
3.41457e-05
0.000126386
0.000241181
0.000379153
0.000540211
0.000723243
0.000925813
0.0011439
0.00137106
0.00159842
0.00181443
0.00200537
0.0021546
0.00225673
0.00226987
-0.000206008
-0.000224221
-0.000208657
-0.000180191
-0.000132214
-6.33237e-05
2.83709e-05
0.000144718
0.000287188
0.000456592
0.000652721
0.000873954
0.00111704
0.00137565
0.00164032
0.00189778
0.0021309
0.00231757
0.00244806
0.00247021
-0.000312943
-0.000334924
-0.00032224
-0.000297775
-0.000253752
-0.0001882
-9.83924e-05
1.84883e-05
0.000165006
0.000343173
0.000554056
0.00079727
0.00107094
0.00136937
0.00168298
0.0019968
0.00228959
0.0025315
0.00270501
0.00274365
-0.000441575
-0.000468369
-0.000459749
-0.000441092
-0.000403153
-0.000343282
-0.000257732
-0.000142507
6.30872e-06
0.000192267
0.00041815
0.000685372
0.000994395
0.00134101
0.00171657
0.00210515
0.00248119
0.00280472
0.00304395
0.00311412
-0.000591832
-0.000624727
-0.000621746
-0.000611355
-0.000582489
-0.000531703
-0.000454038
-0.000344118
-0.000196434
-5.5549e-06
0.000233484
0.000524301
0.000871743
0.00127372
0.00172485
0.00221014
0.00270058
0.00314562
0.00348659
0.00362009
-0.000763315
-0.000803901
-0.000808564
-0.000809674
-0.000793868
-0.000756792
-0.000692099
-0.000592868
-0.00045181
-0.00026131
-1.34348e-05
0.000300173
0.000682406
0.00114294
0.00168156
0.00228786
0.00293238
0.0035586
0.00405956
0.00432568
-0.000955146
-0.00100539
-0.00102013
-0.00103689
-0.00103926
-0.00102189
-0.00097686
-0.000895628
-0.000769135
-0.000587699
-0.000340796
-1.70383e-05
0.000395726
0.000912811
0.00154543
0.00229528
0.00314027
0.00403181
0.00478546
0.00534157
-0.00116594
-0.00122835
-0.00125585
-0.00129342
-0.00132033
-0.00133011
-0.0013131
-0.00125906
-0.00115734
-0.000996484
-0.000763383
-0.000441938
-1.12417e-05
0.000541868
0.00125744
0.00215857
0.00324616
0.00451279
0.00565208
0.00686878
-0.00139252
-0.00147116
-0.00151427
-0.00157967
-0.00163868
-0.00168441
-0.00170526
-0.00168927
-0.00162472
-0.00149963
-0.00130067
-0.00101163
-0.000612367
-6.64363e-05
0.000701868
0.00172995
0.00308117
0.00486756
0.00655093
0.00918684
-0.00163681
-0.00172669
-0.00178763
-0.00188507
-0.00198758
-0.00208305
-0.00215546
-0.0021902
-0.0021754
-0.00209958
-0.0019494
-0.00170724
-0.00134525
-0.000819076
-5.79297e-05
0.000990204
0.00246206
0.00479578
0.00705007
0.012235
-0.00188923
-0.00206832
-0.00212409
-0.00229784
-0.00243678
-0.0025725
-0.00268905
-0.00277542
-0.00282013
-0.0028132
-0.00274744
-0.00261413
-0.00240086
-0.00208218
-0.00161865
-0.00086435
0.000321471
0.00311159
0.0052463
0.0144202
-0.002169
-0.00214803
-0.00225941
-0.00241309
-0.00265085
-0.00290274
-0.00314518
-0.00334688
-0.0034907
-0.00356846
-0.00358497
-0.0035486
-0.00347267
-0.00336485
-0.0032283
-0.00293794
-0.00280403
-0.000647136
-0.00164713
0.01158
-0.00220181
-0.0028993
-0.00290925
-0.00340542
-0.0036213
-0.00389693
-0.00412832
-0.00432272
-0.00447554
-0.00458587
-0.00467087
-0.00476426
-0.00491159
-0.00523411
-0.00586007
-0.00659991
-0.00952349
-0.00936149
-0.0131924
0.00485984
-0.00364466
-0.00245576
-0.00261968
-0.00268172
-0.00314482
-0.00364978
-0.00416658
-0.00461158
-0.00497088
-0.00521448
-0.00540127
-0.00554914
-0.00580803
-0.00625886
-0.00750351
-0.00901436
-0.0142678
-0.0171042
-0.0196365
0.00756521
-0.000676131
-0.00408856
-0.00387001
-0.00509479
-0.00534864
-0.0058613
-0.00622571
-0.00650714
-0.00671206
-0.00682656
-0.00683836
-0.00698144
-0.0070542
-0.00773038
-0.0096566
-0.0114361
-0.0197557
-0.0230502
-0.017524
0.0274816
-0.0134378
-0.00158571
-0.00162233
-0.00231456
-0.00314504
-0.00397963
-0.00482416
-0.00545638
-0.0060475
-0.00626594
-0.00657088
-0.00659346
-0.0069645
-0.00733314
-0.00848835
-0.00931405
-0.00898356
9.80727e-05
0.033505
0.115374
3.24846e-06
-5.8291e-06
1.54891e-05
5.26681e-05
0.000109194
0.000185099
0.000280306
0.000394429
0.00052653
0.000674941
0.000837088
0.00100933
0.00118686
0.00136365
0.00153258
0.00168573
0.00181486
0.0019114
0.00197415
0.00197873
1.1759e-05
1.94661e-06
2.27562e-05
5.83783e-05
0.000112879
0.000186431
0.000279138
0.000390802
0.000520676
0.000667291
0.000828214
0.000999898
0.0011778
0.00135585
0.00152683
0.00168258
0.00181452
0.00191359
0.00197879
0.00198347
-1.21304e-05
-2.35423e-05
-3.49301e-06
3.10585e-05
8.4582e-05
0.000157399
0.000249856
0.000362028
0.00049346
0.000642949
0.000808369
0.000986565
0.00117275
0.00136075
0.00154297
0.00171055
0.00185386
0.00196238
0.00203443
0.00203992
-5.40536e-05
-6.71987e-05
-4.82342e-05
-1.5186e-05
3.69671e-05
0.000108815
0.000201086
0.000314289
0.000448429
0.000602772
0.000775585
0.00096397
0.00116358
0.00136801
0.00156897
0.0017564
0.00191899
0.00204379
0.00212779
0.00213601
-0.000117358
-0.000132762
-0.00011527
-8.41929e-05
-3.37912e-05
3.68906e-05
0.000129098
0.000243935
0.00038205
0.000543378
0.000726832
0.000930002
0.00114888
0.00137701
0.00160549
0.00182272
0.00201484
0.00216509
0.00226797
0.00228135
-0.000201963
-0.000220308
-0.000204877
-0.00017659
-0.00012878
-6.00261e-05
3.15894e-05
0.000147945
0.000290546
0.000460242
0.000656864
0.000878829
0.00112292
0.00138282
0.00164905
0.00190824
0.00214314
0.0023314
0.00246311
0.00248574
-0.000307934
-0.000330071
-0.000317564
-0.000293345
-0.000249564
-0.000184227
-9.45736e-05
2.22554e-05
0.00016887
0.000347336
0.000558778
0.000802877
0.00107783
0.00137797
0.00169372
0.00201004
0.0023055
0.00254993
0.00272545
0.00276503
-0.000435317
-0.000462298
-0.000453921
-0.000435606
-0.000398023
-0.000338492
-0.000253217
-0.000138151
1.06838e-05
0.000196911
0.000423393
0.000691647
0.00100226
0.0013511
0.00172958
0.00212172
0.00250178
0.00282931
0.00307188
0.00314388
-0.000583935
-0.00061706
-0.000614419
-0.000604516
-0.000576178
-0.000525923
-0.000448728
-0.000339149
-0.000191598
-5.48507e-07
0.00023907
0.00053099
0.000880349
0.00128513
0.00174012
0.0022304
0.00272679
0.00317817
0.00352468
0.00366172
-0.000753245
-0.000794122
-0.000799267
-0.000801081
-0.000786063
-0.000749809
-0.00068589
-0.000587295
-0.000446636
-0.000256177
-7.83373e-06
0.000306962
0.000691223
0.00115505
0.00169857
0.00231164
0.00296475
0.00360088
0.0041111
0.0043841
-0.000942166
-0.000992788
-0.00100822
-0.001026
-0.00102955
-0.00101343
-0.000969635
-0.0008895
-0.000763847
-0.000582854
-0.000335825
-1.11628e-05
0.000403597
0.000924317
0.00156276
0.00232134
0.00317837
0.00408497
0.00485381
0.00542415
-0.00114903
-0.00121196
-0.00124044
-0.0012795
-0.00130814
-0.00131982
-0.00130472
-0.00125246
-0.00115226
-0.000992493
-0.000759816
-0.000437981
-5.466e-06
0.000551112
0.00127252
0.00218397
0.00328744
0.00457604
0.00574024
0.00698517
-0.00137036
-0.00144969
-0.00149417
-0.00156174
-0.00162327
-0.0016718
-0.00169552
-0.00168232
-0.00162028
-0.00149731
-0.00129996
-0.00101185
-0.000612365
-6.29383e-05
0.000708845
0.00174699
0.00311752
0.00493441
0.00665841
0.00934811
-0.00160751
-0.00169821
-0.00176107
-0.00186153
-0.0019677
-0.00206731
-0.00214403
-0.00218299
-0.00217209
-0.0020998
-0.00195276
-0.00171339
-0.00135379
-0.000827586
-6.50114e-05
0.000991928
0.00248304
0.00485165
0.00716604
0.0124444
-0.00185119
-0.00203279
-0.00209059
-0.00226925
-0.00241294
-0.00255409
-0.00267632
-0.00276841
-0.00281869
-0.00281712
-0.00275654
-0.00262838
-0.00242037
-0.00210801
-0.0016507
-0.000902414
0.000292582
0.00310645
0.00531946
0.0146398
-0.00211707
-0.00209764
-0.00221244
-0.0023716
-0.00261622
-0.00287611
-0.00312728
-0.00333778
-0.00349
-0.0035757
-0.00359996
-0.00357184
-0.00350603
-0.00341206
-0.00329069
-0.00301771
-0.00291154
-0.000770908
-0.00171152
0.0117001
-0.00213698
-0.00284102
-0.00285205
-0.00335833
-0.00358212
-0.0038687
-0.00411124
-0.00431647
-0.00447959
-0.00459968
-0.00469436
-0.00479861
-0.00495999
-0.00530318
-0.0059619
-0.00675199
-0.00975088
-0.00971532
-0.0134528
0.00481513
-0.00355765
-0.00237272
-0.00254175
-0.00261257
-0.00308641
-0.00360491
-0.0041372
-0.00459767
-0.00497177
-0.00522864
-0.00542805
-0.00558882
-0.00586542
-0.00634158
-0.00763445
-0.00921696
-0.0146118
-0.0176347
-0.0200268
0.00744269
-0.000593245
-0.00401258
-0.00378255
-0.00501861
-0.00528003
-0.00581067
-0.00619273
-0.00649299
-0.0067159
-0.00684654
-0.00687155
-0.00702848
-0.00711551
-0.00781716
-0.00979272
-0.0116397
-0.0201357
-0.0235421
-0.0178771
0.0277128
-0.013318
-0.00146098
-0.00149922
-0.00220127
-0.00304959
-0.00390715
-0.00477685
-0.00543309
-0.006047
-0.00628355
-0.00660375
-0.00663861
-0.00702581
-0.007413
-0.00860512
-0.00946271
-0.00917952
-8.31427e-05
0.0335142
0.116084
4.77603e-06
-4.32491e-06
1.69759e-05
5.41339e-05
0.000110652
0.000186571
0.000281823
0.000396033
0.000528271
0.000676877
0.000839281
0.00101185
0.00118975
0.00136695
0.00153631
0.00168988
0.00181938
0.00191621
0.00197915
0.00198378
1.34145e-05
3.57307e-06
2.43588e-05
5.99521e-05
0.000114437
0.000187995
0.00028074
0.000392485
0.000522495
0.000669306
0.000830493
0.00100251
0.00118081
0.0013593
0.00153075
0.00168696
0.00181932
0.00191872
0.00198414
0.00198888
-1.0231e-05
-2.16786e-05
-1.66434e-06
3.28442e-05
8.63376e-05
0.000159147
0.000251631
0.000363879
0.000495445
0.000645142
0.000810849
0.000989418
0.00117605
0.00136458
0.00154736
0.00171552
0.00185935
0.00196829
0.00204065
0.00204624
-5.17879e-05
-6.49768e-05
-4.60629e-05
-1.30785e-05
3.90223e-05
0.000110842
0.000203122
0.000316389
0.000450664
0.000605229
0.000778365
0.000967187
0.00116734
0.00137243
0.00157412
0.0017623
0.00192562
0.00205103
0.00213547
0.00214385
-0.000114607
-0.000130064
-0.000112644
-8.16584e-05
-3.13401e-05
3.92819e-05
0.000131472
0.000246355
0.000384602
0.000546172
0.00073
0.000933694
0.00115326