/*--------------------------------*- C++ -*----------------------------------*\
  =========                 |
  \\      /  F ield         | OpenFOAM: The Open Source CFD Toolbox
   \\    /   O peration     | Website:  https://openfoam.org
    \\  /    A nd           | Version:  9
     \\/     M anipulation  |
\*---------------------------------------------------------------------------*/
FoamFile
{
    format      ascii;
    class       surfaceScalarField;
    location    "4";
    object      phi;
}
// * * * * * * * * * * * * * * * * * * * * * * * * * * * * * * * * * * * * * //

dimensions      [0 3 -1 0 0 0 0];

internalField   nonuniform List<scalar> 
22800
(
-4.2178e-06
4.35759e-06
-1.39782e-07
-1.05293e-05
6.2721e-06
3.94516e-08
-1.69414e-05
6.33601e-06
7.60206e-08
-2.31104e-05
6.07029e-06
9.86811e-08
-2.88786e-05
5.66914e-06
9.91131e-08
-3.4114e-05
5.14926e-06
8.61758e-08
-3.86863e-05
4.50891e-06
6.3315e-08
-4.24634e-05
3.74575e-06
3.13516e-08
-4.53132e-05
2.85888e-06
-9.06506e-09
-4.71074e-05
1.85018e-06
-5.59517e-08
-4.77206e-05
7.27633e-07
-1.14469e-07
-4.70423e-05
-4.99372e-07
-1.78893e-07
-4.49876e-05
-1.80608e-06
-2.48601e-07
-4.15102e-05
-3.15653e-06
-3.2087e-07
-3.66175e-05
-4.50147e-06
-3.91297e-07
-3.03863e-05
-5.77788e-06
-4.53276e-07
-2.29819e-05
-6.9085e-06
-4.95929e-07
-1.46985e-05
-7.78306e-06
-5.00281e-07
-6.13554e-06
-8.09568e-06
-4.67311e-07
-5.94108e-06
-1.94466e-07
-6.26093e-06
1.10159e-05
-3.97341e-07
-1.50861e-05
1.53144e-05
-2.17147e-07
-2.39926e-05
1.54112e-05
-1.68698e-07
-3.25206e-05
1.47221e-05
-1.23742e-07
-4.04489e-05
1.36958e-05
-9.83651e-08
-4.75924e-05
1.23762e-05
-8.34331e-08
-5.37742e-05
1.07667e-05
-7.59739e-08
-5.88212e-05
8.86855e-06
-7.58272e-08
-6.25645e-05
6.68585e-06
-8.36614e-08
-6.48381e-05
4.22402e-06
-1.0028e-07
-6.54995e-05
1.51565e-06
-1.26546e-07
-6.44197e-05
-1.41631e-06
-1.62869e-07
-6.14878e-05
-4.53228e-06
-2.05694e-07
-5.66581e-05
-7.73223e-06
-2.54068e-07
-4.99496e-05
-1.09062e-05
-3.03784e-07
-4.14691e-05
-1.39105e-05
-3.47902e-07
-3.14354e-05
-1.6568e-05
-3.74159e-07
-2.02335e-05
-1.86236e-05
-3.61327e-07
-8.64053e-06
-1.9374e-05
-3.14717e-07
-1.45631e-05
-1.8555e-08
-6.70799e-06
1.82106e-05
-4.86751e-07
-1.61502e-05
2.50621e-05
-3.05451e-07
-2.56711e-05
2.51848e-05
-2.52627e-07
-3.47879e-05
2.4039e-05
-2.00189e-07
-4.32708e-05
2.23456e-05
-1.66964e-07
-5.09278e-05
2.01769e-05
-1.43609e-07
-5.75751e-05
1.75413e-05
-1.27383e-07
-6.3032e-05
1.4444e-05
-1.18514e-07
-6.71217e-05
1.08936e-05
-1.18084e-07
-6.96767e-05
6.90622e-06
-1.27227e-07
-7.05296e-05
2.51465e-06
-1.46037e-07
-6.9516e-05
-2.25389e-06
-1.76092e-07
-6.652e-05
-7.31312e-06
-2.151e-07
-6.14697e-05
-1.25209e-05
-2.61685e-07
-5.43575e-05
-1.77068e-05
-3.11572e-07
-4.52698e-05
-2.26412e-05
-3.56998e-07
-3.44204e-05
-2.70331e-05
-3.84309e-07
-2.22172e-05
-3.04572e-05
-3.69632e-07
-9.51463e-06
-3.17577e-05
-3.188e-07
-2.40756e-05
-2.09917e-09
-7.02987e-06
2.58164e-05
-5.75905e-07
-1.69644e-05
3.53899e-05
-3.93277e-07
-2.69895e-05
3.55469e-05
-3.37008e-07
-3.66077e-05
3.39355e-05
-2.7832e-07
-4.55857e-05
3.15623e-05
-2.38614e-07
-5.373e-05
2.85296e-05
-2.08443e-07
-6.0854e-05
2.48505e-05
-1.85247e-07
-6.67728e-05
2.05324e-05
-1.69565e-07
-7.13012e-05
1.55848e-05
-1.62778e-07
-7.4254e-05
1.00254e-05
-1.66335e-07
-7.54496e-05
3.89158e-06
-1.81384e-07
-7.47044e-05
-2.78874e-06
-2.10326e-07
-7.18399e-05
-9.92812e-06
-2.49479e-07
-6.67346e-05
-1.73279e-05
-2.98246e-07
-5.9332e-05
-2.47573e-05
-3.5216e-07
-4.96771e-05
-3.18927e-05
-4.03497e-07
-3.79583e-05
-3.83153e-05
-4.36543e-07
-2.46044e-05
-4.33878e-05
-4.23173e-07
-1.05738e-05
-4.54193e-05
-3.69044e-07
-3.46324e-05
-1.70115e-08
-7.44774e-06
3.39313e-05
-6.67152e-07
-1.80228e-05
4.64443e-05
-4.79422e-07
-2.87083e-05
4.66522e-05
-4.19794e-07
-3.89855e-05
4.45681e-05
-3.55423e-07
-4.86174e-05
4.15048e-05
-3.10524e-07
-5.74094e-05
3.75971e-05
-2.75483e-07
-6.5174e-05
3.28629e-05
-2.47868e-07
-7.17226e-05
2.73095e-05
-2.28523e-07
-7.68621e-05
2.09435e-05
-2.192e-07
-8.03911e-05
1.37763e-05
-2.21854e-07
-8.20989e-05
5.83767e-06
-2.38284e-07
-8.17674e-05
-2.84949e-06
-2.70708e-07
-7.91554e-05
-1.22242e-05
-3.15954e-07
-7.40651e-05
-2.20438e-05
-3.74395e-07
-6.63507e-05
-3.20304e-05
-4.413e-07
-5.59746e-05
-4.1761e-05
-5.07741e-07
-4.30748e-05
-5.06597e-05
-5.55523e-07
-2.80939e-05
-5.78189e-05
-5.49742e-07
-1.21432e-05
-6.08763e-05
-4.93754e-07
-4.66914e-05
-8.42006e-08
-7.98652e-06
4.26934e-05
-7.75625e-07
-1.93852e-05
5.8423e-05
-5.79989e-07
-3.09188e-05
5.87022e-05
-5.16396e-07
-4.20396e-05
5.61344e-05
-4.45458e-07
-5.25069e-05
5.23669e-05
-3.94845e-07
-6.21266e-05
4.75717e-05
-3.5482e-07
-7.07126e-05
4.1772e-05
-3.23149e-07
-7.80757e-05
3.49737e-05
-3.0104e-07
-8.40169e-05
2.71753e-05
-2.90691e-07
-8.83197e-05
1.83737e-05
-2.94611e-07
-9.07439e-05
8.57736e-06
-3.15437e-07
-9.1033e-05
-2.2036e-06
-3.56789e-07
-8.88527e-05
-1.39903e-05
-4.14174e-07
-8.39037e-05
-2.65023e-05
-4.90587e-07
-7.59062e-05
-3.94467e-05
-5.81198e-07
-6.46807e-05
-5.23109e-05
-6.75621e-07
-5.0259e-05
-6.43294e-05
-7.51936e-07
-3.3065e-05
-7.42477e-05
-7.65239e-07
-1.44198e-05
-7.88092e-05
-7.12179e-07
-6.08901e-05
-2.21076e-07
-8.64967e-06
5.22567e-05
-9.13566e-07
-2.1064e-05
7.15456e-05
-7.08286e-07
-3.36391e-05
7.19167e-05
-6.39322e-07
-4.57913e-05
6.8846e-05
-5.59396e-07
-5.72765e-05
6.43528e-05
-5.00752e-07
-6.79042e-05
5.86531e-05
-4.53681e-07
-7.74941e-05
5.17783e-05
-4.16396e-07
-8.58626e-05
4.37328e-05
-3.90657e-07
-9.28115e-05
3.45035e-05
-3.79275e-07
-9.81149e-05
2.40626e-05
-3.85528e-07
-0.000101505
1.23801e-05
-4.13174e-07
-0.000102688
-5.51812e-07
-4.68218e-07
-0.000101217
-1.49161e-05
-5.45213e-07
-9.66564e-05
-3.04119e-05
-6.5109e-07
-8.85303e-05
-4.67912e-05
-7.81469e-07
-7.6425e-05
-6.34912e-05
-9.24949e-07
-6.01603e-05
-7.954e-05
-1.05412e-06
-4.00566e-05
-9.32412e-05
-1.11019e-06
-1.77079e-05
-0.000100085
-1.0731e-06
-7.81238e-05
-4.74267e-07
-9.4409e-06
6.27908e-05
-1.09327e-06
-2.30726e-05
8.60546e-05
-8.77316e-07
-3.68881e-05
8.65327e-05
-8.00388e-07
-5.026e-05
8.29249e-05
-7.07075e-07
-6.2942e-05
7.76707e-05
-6.35921e-07
-7.4752e-05
7.10406e-05
-5.77566e-07
-8.55227e-05
6.30801e-05
-5.31077e-07
-9.50859e-05
5.37952e-05
-4.99082e-07
-0.000103257
4.31596e-05
-4.85241e-07
-0.000109814
3.11134e-05
-4.93776e-07
-0.000114474
1.75701e-05
-5.29355e-07
-0.000116898
2.46832e-06
-5.96536e-07
-0.000116551
-1.45532e-05
-7.10027e-07
-0.000112803
-3.32976e-05
-8.62378e-07
-0.000104909
-5.3628e-05
-1.0572e-06
-9.20877e-05
-7.50275e-05
-1.28488e-06
-7.37553e-05
-9.63611e-05
-1.5114e-06
-4.99308e-05
-0.000115407
-1.65891e-06
-2.25414e-05
-0.000125805
-1.66915e-06
-9.97077e-05
-9.57536e-07
-1.03687e-05
7.44907e-05
-1.33113e-06
-2.54347e-05
0.000102225
-1.10398e-06
-4.06972e-05
0.000102809
-1.01437e-06
-5.54764e-05
9.86042e-05
-9.00081e-07
-6.95263e-05
9.25292e-05
-8.08519e-07
-8.26792e-05
8.49248e-05
-7.31376e-07
-9.47912e-05
7.58613e-05
-6.69237e-07
-0.000105724
6.53542e-05
-6.25953e-07
-0.000115326
5.33677e-05
-6.06355e-07
-0.000123403
3.98062e-05
-6.15934e-07
-0.000129686
2.45132e-05
-6.59723e-07
-0.000133782
7.29954e-06
-7.35855e-07
-0.00013514
-1.22868e-05
-9.08364e-07
-0.000132876
-3.44315e-05
-1.12983e-06
-0.000125898
-5.91797e-05
-1.42593e-06
-0.000112879
-8.62518e-05
-1.79542e-06
-9.25235e-05
-0.000114515
-2.20107e-06
-6.40987e-05
-0.000141292
-2.54001e-06
-2.9899e-05
-0.000157334
-2.6707e-06
-0.000127736
-1.87099e-06
-1.14509e-05
8.75933e-05
-1.65175e-06
-2.81936e-05
0.00012038
-1.41284e-06
-4.51206e-05
0.000121038
-1.30184e-06
-6.14928e-05
0.00011613
-1.15341e-06
-7.7068e-05
0.000109132
-1.02782e-06
-9.17003e-05
0.000100476
-9.19125e-07
-0.000105282
9.02738e-05
-8.30416e-07
-0.000117725
7.85643e-05
-7.67261e-07
-0.000128936
6.53141e-05
-7.36007e-07
-0.000138783
5.03981e-05
-7.44494e-07
-0.000147052
3.35849e-05
-8.02968e-07
-0.00015336
1.4538e-05
-9.30268e-07
-0.00015717
-7.33878e-06
-1.13811e-06
-0.000157388
-3.27616e-05
-1.45191e-06
-0.000152498
-6.21677e-05
-1.90156e-06
-0.000140414
-9.58324e-05
-2.50351e-06
-0.000118687
-0.00013301
-3.23163e-06
-8.4935e-05
-0.000171074
-3.96974e-06
-4.17241e-05
-0.000196159
-4.38564e-06
-0.000165763
-3.69713e-06
-1.27238e-05
0.000102412
-2.09523e-06
-3.14279e-05
0.000140927
-1.84252e-06
-5.02528e-05
0.000141557
-1.69333e-06
-6.83999e-05
0.000135764
-1.48735e-06
-8.56362e-05
0.000127673
-1.30416e-06
-0.000101846
0.000117829
-1.14249e-06
-0.000116974
0.000106411
-1.00923e-06
-0.000131002
9.35044e-05
-9.12057e-07
-0.000143928
7.90986e-05
-8.58738e-07
-0.000155728
6.30575e-05
-8.59016e-07
-0.000166302
4.50857e-05
-9.27237e-07
-0.000175372
2.4699e-05
-1.09075e-06
-0.000182641
1.32291e-06
-1.39297e-06
-0.000186692
-2.68936e-05
-1.81704e-06
-0.000185736
-6.06406e-05
-2.48273e-06
-0.00017674
-0.000101383
-3.44639e-06
-0.000155505
-0.000149512
-4.73304e-06
-0.000116517
-0.00020378
-6.28289e-06
-6.23064e-05
-0.000243001
-7.36833e-06
-0.000220521
-7.54762e-06
-1.4261e-05
0.0001194
-2.72686e-06
-3.52863e-05
0.000164403
-2.45117e-06
-5.62588e-05
0.000164763
-2.2336e-06
-7.63544e-05
0.000157789
-1.92913e-06
-9.53551e-05
0.000148321
-1.64767e-06
-0.000113185
0.000137056
-1.39717e-06
-0.000129858
0.000124274
-1.19028e-06
-0.000145448
0.000110132
-1.03698e-06
-0.000160084
9.46796e-05
-9.45412e-07
-0.000173913
7.78124e-05
-9.25801e-07
-0.000187058
5.92254e-05
-9.94757e-07
-0.000199558
3.83729e-05
-1.17399e-06
-0.000210824
1.40696e-05
-1.48009e-06
-0.000220498
-1.51461e-05
-2.07419e-06
-0.000226279
-5.17941e-05
-3.06505e-06
-0.000224118
-9.89786e-05
-4.56506e-06
-0.000207573
-0.000159278
-6.77936e-06
-0.000165577
-0.000235907
-9.86867e-06
-9.91168e-05
-0.000296974
-1.24879e-05
-0.000303543
-1.60947e-05
-1.61761e-05
0.000139278
-3.70175e-06
-3.99926e-05
0.000191576
-3.35604e-06
-6.33817e-05
0.000191152
-3e-06
-8.56086e-05
0.000182527
-2.51156e-06
-0.000106439
0.000171211
-2.05979e-06
-0.000125856
0.000158136
-1.66217e-06
-0.000143961
0.000143715
-1.33657e-06
-0.000160941
0.000128206
-1.09398e-06
-0.000177072
0.00011175
-9.39255e-07
-0.000192694
9.43114e-05
-8.77256e-07
-0.000208184
7.56343e-05
-9.1897e-07
-0.000223952
5.5234e-05
-1.09332e-06
-0.000240557
3.21495e-05
-1.47484e-06
-0.000258097
4.75259e-06
-2.35855e-06
-0.000274112
-3.2164e-05
-3.61438e-06
-0.000284642
-8.2688e-05
-5.76104e-06
-0.000281369
-0.000153264
-9.28628e-06
-0.00024303
-0.000259275
-1.49709e-05
-0.000168479
-0.000350939
-2.05851e-05
-0.000437101
-3.49217e-05
-1.91398e-05
0.000163522
-5.1037e-06
-4.63762e-05
0.000223564
-4.75197e-06
-7.22541e-05
0.000221166
-4.13593e-06
-9.66173e-05
0.000210247
-3.35612e-06
-0.00011922
0.000196398
-2.58343e-06
-0.000140097
0.000180925
-1.9131e-06
-0.000159408
0.000164407
-1.37987e-06
-0.000177454
0.000147247
-9.95075e-07
-0.000194729
0.000129775
-7.5038e-07
-0.000211919
0.000112143
-6.41516e-07
-0.000229896
9.43008e-05
-6.88985e-07
-0.000249546
7.58166e-05
-9.33225e-07
-0.000271797
5.58128e-05
-1.41202e-06
-0.000297066
3.21021e-05
-2.08039e-06
-0.000325929
-2.58114e-07
-3.043e-06
-0.000356643
-4.64789e-05
-5.49524e-06
-0.000382149
-0.00011756
-1.01984e-05
-0.000367642
-0.000254088
-1.96935e-05
-0.000298568
-0.000390692
-2.93219e-05
-0.00066786
-6.78084e-05
-2.04633e-05
0.000191782
-7.79672e-06
-5.33493e-05
0.000262861
-6.41065e-06
-8.24653e-05
0.00025579
-5.5088e-06
-0.000110285
0.000241975
-3.90871e-06
-0.000134816
0.000223665
-2.73588e-06
-0.000156749
0.000204625
-1.76659e-06
-0.000176608
0.000185286
-1.02129e-06
-0.000194933
0.000166049
-4.76996e-07
-0.000212278
0.000147223
-1.0387e-07
-0.000229246
0.000129
1.11677e-07
-0.000246919
0.000111755
2.19304e-07
-0.000267103
9.57499e-05
2.50584e-07
-0.000292637
8.11268e-05
2.19834e-07
-0.000327425
6.68372e-05
5.29186e-08
-0.000376915
5.02577e-05
-1.0253e-06
-0.000440534
1.97577e-05
-2.61791e-06
-0.000520921
-3.12578e-05
-5.91527e-06
-0.000557436
-0.000203581
-1.39917e-05
-0.000512365
-0.000418111
-1.76522e-05
-0.00109037
-8.98567e-05
-4.1023e-05
0.000244752
-1.19478e-05
-7.05587e-05
0.000304252
-1.18553e-05
-0.000100219
0.000294728
-9.27784e-06
-0.000125865
0.000274672
-7.05054e-06
-0.000150329
0.000252581
-4.45212e-06
-0.000173012
0.000229706
-2.39765e-06
-0.000193914
0.000206987
-7.9901e-07
-0.000213011
0.000184872
2.7443e-07
-0.000230802
0.000164114
9.00777e-07
-0.000248178
0.000145181
1.19508e-06
-0.000266806
0.000129125
1.25711e-06
-0.000288666
0.000116415
1.19533e-06
-0.000317585
0.000108864
1.18139e-06
-0.000358923
0.000106695
1.47958e-06
-0.000423641
0.000112427
2.54893e-06
-0.000515788
0.000105181
6.72423e-06
-0.000654681
9.18064e-05
1.5829e-05
-0.00075774
-0.000130934
3.04108e-05
-0.000714539
-0.000536155
7.48442e-05
-0.00175804
-4.68641e-05
-1.07771e-05
0.000277139
-2.16096e-05
-7.14891e-05
0.000378138
-1.31738e-05
-0.000114528
0.000347253
-9.48635e-06
-0.000152785
0.000316113
-3.18358e-06
-0.000181021
0.000281123
-3.0555e-07
-0.000203255
0.000249757
2.18252e-06
-0.000220925
0.000220984
3.67218e-06
-0.000235557
0.000194986
4.51786e-06
-0.000248322
0.000171976
4.90413e-06
-0.000259549
0.000151418
4.98967e-06
-0.000270581
0.000135125
5.03225e-06
-0.000282702
0.000123228
5.30715e-06
-0.000300597
0.000120442
6.31767e-06
-0.000332031
0.000128613
9.51627e-06
-0.000398462
0.000161935
1.69237e-05
-0.000515733
0.00018748
3.49719e-05
-0.000727454
0.000224289
7.92386e-05
-0.000887319
-0.000105273
0.000134204
-0.000760072
-0.00088344
0.000220038
-0.00248382
-3.42929e-05
-0.000104316
0.00041252
-3.10649e-05
-0.000121833
0.000426366
-3.07118e-05
-0.00014236
0.000390694
-2.29131e-05
-0.000172291
0.000361912
-1.5868e-05
-0.000192407
0.000307966
-6.72739e-06
-0.000208814
0.000266651
-4.86774e-07
-0.000221974
0.000230219
3.92511e-06
-0.000231979
0.000198367
6.62429e-06
-0.000240087
0.000172054
8.0288e-06
-0.000245677
0.000148669
8.33932e-06
-0.000251814
0.000132939
8.32253e-06
-0.000257151
0.000120394
8.17102e-06
-0.000268009
0.000121767
9.53347e-06
-0.000284706
0.000130889
1.44203e-05
-0.000325681
0.000172695
3.02141e-05
-0.000399445
0.000196376
6.48688e-05
-0.000522358
0.000204096
0.000143106
-0.000642726
-0.000222963
0.000238058
-0.000487492
-0.00130299
0.00026432
-0.00280762
-0.000163695
-0.000391429
0.000891226
-8.72767e-05
-0.000356862
0.000422541
-3.07422e-05
-0.000302153
0.000346826
-1.08402e-05
-0.000220046
0.00026833
1.14745e-05
-0.000143252
0.000211134
2.0038e-05
-7.37321e-05
0.000170172
2.69585e-05
-1.42684e-05
0.000140981
2.97743e-05
3.63445e-05
0.000117791
2.99631e-05
7.87782e-05
0.000101011
2.86099e-05
0.000115852
8.58854e-05
2.57095e-05
0.000150716
7.55114e-05
2.25635e-05
0.000182917
6.79735e-05
2.02194e-05
0.000227705
5.99328e-05
1.70463e-05
0.000272741
6.66601e-05
1.91927e-05
0.000362586
5.20727e-05
3.07781e-05
0.000447455
6.35464e-05
4.79605e-05
0.000555731
-2.70426e-05
0.000122862
0.000449327
-0.000352943
0.000236384
0.000185465
-0.00120918
0.000170044
-0.00227529
-0.000346861
0.000984456
-9.32304e-05
0.00148707
-8.00716e-05
0.00190929
-7.53989e-05
0.00223692
-5.92939e-05
0.00248862
-4.05636e-05
0.00268298
-2.41933e-05
0.0028328
-8.84283e-06
0.00295
5.98054e-07
0.00303892
1.20868e-05
0.00311105
1.37562e-05
0.00316705
1.95106e-05
0.00321761
1.74195e-05
0.00326339
1.41431e-05
0.00331022
1.98349e-05
0.00335758
4.70845e-06
0.0033943
2.68355e-05
0.0033519
1.53539e-05
0.00298519
1.3761e-05
0.00173304
4.29739e-05
-0.00054225
-6.0175e-06
6.07308e-06
-1.95358e-07
-1.48355e-05
8.93857e-06
-8.11151e-08
-2.37394e-05
9.02455e-06
-4.46652e-08
-3.22222e-05
8.59808e-06
-1.65761e-08
-4.00825e-05
7.96655e-06
-7.12508e-09
-4.71466e-05
7.16121e-06
-1.09571e-08
-5.32427e-05
6.18459e-06
-2.52017e-08
-5.8201e-05
5.03858e-06
-4.89009e-08
-6.18556e-05
3.72739e-06
-8.18671e-08
-6.40463e-05
2.25882e-06
-1.2401e-07
-6.46317e-05
6.45072e-07
-1.74198e-07
-6.34846e-05
-1.09411e-06
-2.31902e-07
-6.05146e-05
-2.92225e-06
-2.96324e-07
-5.56818e-05
-4.78997e-06
-3.6367e-07
-4.90122e-05
-6.63172e-06
-4.29157e-07
-4.06146e-05
-8.36485e-06
-4.86042e-07
-3.06977e-05
-9.88835e-06
-5.24462e-07
-1.96173e-05
-1.10511e-05
-5.29706e-07
-8.19612e-06
-1.13856e-05
-5.02872e-07
-8.09324e-06
-2.97348e-07
-9.17158e-06
1.52455e-05
-3.9821e-07
-2.18119e-05
2.16528e-05
-2.91077e-07
-3.4493e-05
2.17806e-05
-2.43687e-07
-4.65225e-05
2.07026e-05
-1.98701e-07
-5.76058e-05
1.9121e-05
-1.69488e-07
-6.74912e-05
1.71141e-05
-1.50992e-07
-7.59388e-05
1.46978e-05
-1.4158e-07
-8.27203e-05
1.18855e-05
-1.41327e-07
-8.76198e-05
8.69409e-06
-1.50868e-07
-9.04343e-05
5.14397e-06
-1.709e-07
-9.09962e-05
1.28239e-06
-2.01936e-07
-8.91558e-05
-2.85391e-06
-2.43478e-07
-8.48049e-05
-7.186e-06
-2.92858e-07
-7.79107e-05
-1.15906e-05
-3.47661e-07
-6.85237e-05
-1.59196e-05
-4.02887e-07
-5.6801e-05
-1.99845e-05
-4.51045e-07
-4.30291e-05
-2.35537e-05
-4.80741e-07
-2.76879e-05
-2.62782e-05
-4.75421e-07
-1.18585e-05
-2.70914e-05
-4.38275e-07
-1.97635e-05
-2.06815e-07
-9.89967e-06
2.51446e-05
-4.86165e-07
-2.35073e-05
3.53383e-05
-3.83322e-07
-3.71424e-05
3.54945e-05
-3.31415e-07
-5.00729e-05
3.3711e-05
-2.78183e-07
-6.19902e-05
3.11123e-05
-2.41018e-07
-7.26309e-05
2.78255e-05
-2.14334e-07
-8.17445e-05
2.38808e-05
-1.96663e-07
-8.90927e-05
1.93033e-05
-1.88105e-07
-9.44495e-05
1.41227e-05
-1.89904e-07
-9.76074e-05
8.37782e-06
-2.03167e-07
-9.83717e-05
2.12899e-06
-2.28307e-07
-9.65544e-05
-4.5817e-06
-2.65659e-07
-9.20388e-05
-1.16034e-05
-3.13196e-07
-8.47635e-05
-1.87592e-05
-3.68495e-07
-7.47486e-05
-2.58197e-05
-4.26359e-07
-6.21301e-05
-3.24814e-05
-4.78457e-07
-4.71914e-05
-3.83648e-05
-5.11952e-07
-3.04417e-05
-4.28896e-05
-5.07909e-07
-1.30705e-05
-4.43118e-05
-4.69606e-07
-3.26156e-05
-2.20502e-07
-1.04279e-05
3.55784e-05
-5.81789e-07
-2.4797e-05
4.97978e-05
-4.83712e-07
-3.91999e-05
4.9988e-05
-4.27537e-07
-5.28775e-05
4.74772e-05
-3.6689e-07
-6.5515e-05
4.38332e-05
-3.21914e-07
-7.68456e-05
3.92347e-05
-2.87079e-07
-8.6615e-05
3.37261e-05
-2.61196e-07
-9.45787e-05
2.73427e-05
-2.45181e-07
-0.000100501
2.01225e-05
-2.40562e-07
-0.000104154
1.21132e-05
-2.48827e-07
-0.000105324
3.38909e-06
-2.7112e-07
-0.000103795
-6.01194e-06
-3.08929e-07
-9.93798e-05
-1.59088e-05
-3.59492e-07
-9.19564e-05
-2.60601e-05
-4.20739e-07
-8.14877e-05
-3.61533e-05
-4.87278e-07
-6.80585e-05
-4.57639e-05
-5.50206e-07
-5.19228e-05
-5.43425e-05
-5.94518e-07
-3.36168e-05
-6.10213e-05
-5.97366e-07
-1.4474e-05
-6.32628e-05
-5.60849e-07
-4.68227e-05
-2.8389e-07
-1.1112e-05
4.67105e-05
-6.87241e-07
-2.6468e-05
6.52671e-05
-5.92671e-07
-4.18714e-05
6.55032e-05
-5.31605e-07
-5.65255e-05
6.22389e-05
-4.63134e-07
-7.01084e-05
5.7516e-05
-4.10429e-07
-8.2351e-05
5.15699e-05
-3.68081e-07
-9.2997e-05
4.44596e-05
-3.35301e-07
-0.000101798
3.62284e-05
-3.13517e-07
-0.000108507
2.69178e-05
-3.04859e-07
-0.000112879
1.65745e-05
-3.11563e-07
-0.000114662
5.26941e-06
-3.356e-07
-0.000113597
-6.96908e-06
-3.78745e-07
-0.00010942
-1.9963e-05
-4.38955e-07
-0.000101915
-3.34244e-05
-5.14938e-07
-9.09374e-05
-4.6971e-05
-6.0101e-07
-7.64743e-05
-6.00479e-05
-6.86825e-07
-5.87178e-05
-7.19003e-05
-7.54241e-07
-3.82231e-05
-8.1292e-05
-7.73773e-07
-1.65366e-05
-8.46992e-05
-7.43827e-07
-6.30192e-05
-4.24339e-07
-1.1999e-05
5.87497e-05
-8.15822e-07
-2.86288e-05
8.20413e-05
-7.24431e-07
-4.53206e-05
8.23356e-05
-6.56971e-07
-6.1227e-05
7.82785e-05
-5.78583e-07
-7.60192e-05
7.24296e-05
-5.16242e-07
-8.94273e-05
6.50881e-05
-4.64819e-07
-0.000101197
5.63301e-05
-4.24118e-07
-0.000111079
4.62059e-05
-3.96267e-07
-0.000118822
3.47542e-05
-3.84165e-07
-0.00012416
2.20091e-05
-3.90934e-07
-0.000126808
8.021e-06
-4.19656e-07
-0.00012645
-7.21024e-06
-4.73573e-07
-0.000122715
-2.35613e-05
-5.50808e-07
-0.000115258
-4.07196e-05
-6.51966e-07
-0.000103772
-5.82672e-05
-7.71458e-07
-8.80714e-05
-7.55265e-05
-8.97305e-07
-6.82208e-05
-9.1496e-05
-1.0069e-06
-4.47531e-05
-0.000104464
-1.06051e-06
-1.95094e-05
-0.000109607
-1.04802e-06
-8.20803e-05
-6.69313e-07
-1.3103e-05
7.19197e-05
-9.806e-07
-3.13146e-05
0.000100438
-8.93258e-07
-4.95978e-05
0.000100796
-8.16682e-07
-6.70422e-05
9.58879e-05
-7.24262e-07
-8.3312e-05
8.88467e-05
-6.48067e-07
-9.81413e-05
8.00473e-05
-5.83574e-07
-0.000111284
6.95881e-05
-5.31554e-07
-0.000122501
5.75271e-05
-4.95146e-07
-0.000131543
4.3895e-05
-4.78299e-07
-0.000138134
2.87001e-05
-4.85356e-07
-0.000141954
1.19492e-05
-5.20989e-07
-0.000142635
-6.40652e-06
-5.90672e-07
-0.000139671
-2.63773e-05
-6.93544e-07
-0.000132542
-4.76658e-05
-8.33556e-07
-0.0001207
-6.98849e-05
-1.00634e-06
-0.000103674
-9.22782e-05
-1.19892e-06
-8.1271e-05
-0.000113571
-1.38276e-06
-5.38947e-05
-0.000131447
-1.50333e-06
-2.37743e-05
-0.000139269
-1.53151e-06
-0.000105251
-1.07798e-06
-1.44406e-05
8.64637e-05
-1.19666e-06
-3.45662e-05
0.000120802
-1.11531e-06
-5.47593e-05
0.000121214
-1.02499e-06
-7.40335e-05
0.000115366
-9.11561e-07
-9.20477e-05
0.000107039
-8.14152e-07
-0.000108547
9.66987e-05
-7.29432e-07
-0.000123306
8.44758e-05
-6.59744e-07
-0.000136109
7.04405e-05
-6.09679e-07
-0.000146727
5.46124e-05
-5.84584e-07
-0.000154892
3.69613e-05
-5.90384e-07
-0.000160263
1.74247e-05
-6.33925e-07
-0.000162431
-4.11123e-06
-7.24037e-07
-0.000160735
-2.79202e-05
-8.6297e-07
-0.000154439
-5.37646e-05
-1.05976e-06
-0.000142652
-8.14149e-05
-1.31427e-06
-0.000124449
-0.000110151
-1.61512e-06
-9.91416e-05
-0.000138462
-1.9277e-06
-6.67585e-05
-0.000163312
-2.17743e-06
-3.00095e-05
-0.000175393
-2.2939e-06
-0.000134455
-1.76274e-06
-1.60387e-05
0.000102656
-1.48478e-06
-3.84445e-05
0.000143516
-1.41233e-06
-6.08867e-05
0.000143942
-1.30036e-06
-8.22873e-05
0.000137021
-1.15437e-06
-0.000102305
0.000127271
-1.02351e-06
-0.000120706
0.000115275
-9.0669e-07
-0.000137303
0.000101212
-8.08758e-07
-0.000151925
8.51733e-05
-7.36299e-07
-0.000164393
6.71699e-05
-6.96378e-07
-0.000174473
4.71229e-05
-6.96833e-07
-0.000181829
2.48686e-05
-7.47301e-07
-0.000186077
2.6474e-07
-8.64267e-07
-0.00018636
-2.74975e-05
-1.04807e-06
-0.000181724
-5.82068e-05
-1.32354e-06
-0.00017082
-9.2046e-05
-1.69882e-06
-0.000152036
-0.000128559
-2.17088e-06
-0.000123795
-0.0001662
-2.70364e-06
-8.52032e-05
-0.000201244
-3.19967e-06
-3.95078e-05
-0.000220258
-3.50132e-06
-0.000172903
-2.93126e-06
-1.79412e-05
0.000120821
-1.87586e-06
-4.3045e-05
0.000169022
-1.81574e-06
-6.81019e-05
0.000169366
-1.66849e-06
-9.19286e-05
0.000161165
-1.47072e-06
-0.00011419
0.000149792
-1.2863e-06
-0.000134691
0.000135975
-1.11821e-06
-0.000153303
0.000119969
-9.75157e-07
-0.000169934
0.000101903
-8.66297e-07
-0.00018449
8.17908e-05
-8.00587e-07
-0.00019683
5.95055e-05
-7.87708e-07
-0.0002067
3.47744e-05
-8.3817e-07
-0.000213625
7.21959e-06
-9.603e-07
-0.000216907
-2.4134e-05
-1.22008e-06
-0.00021521
-5.97539e-05
-1.60126e-06
-0.000206663
-0.000100347
-2.14737e-06
-0.000188698
-0.000146147
-2.88076e-06
-0.000158268
-0.00019608
-3.78088e-06
-0.000112454
-0.000246286
-4.74251e-06
-5.49259e-05
-0.000276744
-5.42831e-06
-0.000226553
-4.97312e-06
-2.02216e-05
0.000141366
-2.41864e-06
-4.85183e-05
0.00019785
-2.37337e-06
-7.659e-05
0.000197911
-2.16675e-06
-0.000103142
0.000188114
-1.8847e-06
-0.000127858
0.000174818
-1.61365e-06
-0.000150601
0.000158939
-1.36368e-06
-0.000171331
0.000140839
-1.14913e-06
-0.000190074
0.000120716
-9.82316e-07
-0.000206872
9.86039e-05
-8.73837e-07
-0.000221734
7.43429e-05
-8.35042e-07
-0.000234557
4.75519e-05
-8.81135e-07
-0.000245018
1.76278e-05
-1.03853e-06
-0.000252537
-1.66585e-05
-1.34973e-06
-0.000255588
-5.66752e-05
-1.84413e-06
-0.00025181
-0.000103997
-2.61071e-06
-0.000237447
-0.000160237
-3.71963e-06
-0.000207218
-0.000225833
-5.20887e-06
-0.000154331
-0.000298428
-7.02798e-06
-8.24544e-05
-0.000347485
-8.50378e-06
-0.00030774
-8.81436e-06
-2.30091e-05
0.000164839
-3.1908e-06
-5.51194e-05
0.000230666
-3.15694e-06
-8.66422e-05
0.000230049
-2.8494e-06
-0.000116205
0.000218177
-2.42839e-06
-0.000143535
0.000202516
-2.01637e-06
-0.000168575
0.000184218
-1.63576e-06
-0.000191417
0.0001638
-1.30921e-06
-0.000212243
0.000141558
-1.05253e-06
-0.000231295
0.000117587
-8.76478e-07
-0.000248818
9.17314e-05
-7.91547e-07
-0.000264988
6.35407e-05
-8.13645e-07
-0.000279785
3.22175e-05
-9.67208e-07
-0.000292724
-3.91713e-06
-1.28231e-06
-0.000302982
-4.65845e-05
-1.90641e-06
-0.000307698
-9.94068e-05
-2.93904e-06
-0.000301973
-0.000165985
-4.54271e-06
-0.000277633
-0.00025003
-6.92348e-06
-0.000221072
-0.000354622
-1.02357e-05
-0.000133924
-0.000433808
-1.3313e-05
-0.000441307
-1.64522e-05
-2.64418e-05
0.000191924
-4.34468e-06
-6.31659e-05
0.000268325
-4.29096e-06
-9.86373e-05
0.000266323
-3.8021e-06
-0.00013152
0.000251689
-3.14113e-06
-0.00016156
0.000232994
-2.49793e-06
-0.000188832
0.000211739
-1.9105e-06
-0.000213612
0.000188654
-1.41149e-06
-0.000236287
0.000164158
-1.01931e-06
-0.000257339
0.00013844
-7.40374e-07
-0.000277298
0.00011139
-5.76518e-07
-0.000296704
8.25615e-05
-5.33777e-07
-0.000316122
5.11808e-05
-6.38432e-07
-0.000336454
1.59005e-05
-9.61199e-07
-0.000356733
-2.69503e-05
-1.71369e-06
-0.000375075
-8.1765e-05
-2.91432e-06
-0.000386169
-0.000155625
-5.02664e-06
-0.000379874
-0.000257047
-8.56376e-06
-0.000331169
-0.000404046
-1.42522e-05
-0.00023639
-0.000528882
-2.02898e-05
-0.000680844
-3.17739e-05
-3.17034e-05
0.000224532
-6.00827e-06
-7.39661e-05
0.000311806
-5.97069e-06
-0.000113547
0.000306935
-5.16739e-06
-0.000149718
0.000288632
-4.12767e-06
-0.000182362
0.000266143
-3.08945e-06
-0.000211658
0.000241278
-2.15564e-06
-0.000238041
0.000215038
-1.38088e-06
-0.000262128
0.000188037
-7.87003e-07
-0.00028476
0.000160689
-3.67268e-07
-0.000306973
0.000133071
-1.09629e-07
-0.000329955
0.00010487
-1.50584e-08
-0.000354815
7.51971e-05
-9.01715e-08
-0.000382481
4.25199e-05
-3.6477e-07
-0.000413666
3.0025e-06
-8.48435e-07
-0.000450764
-4.5925e-05
-1.78526e-06
-0.000490173
-0.000117715
-3.99541e-06
-0.000524706
-0.0002243
-8.41179e-06
-0.000513278
-0.000417998
-1.71704e-05
-0.000428512
-0.00061557
-2.74004e-05
-0.00112015
-5.70145e-05
-3.36492e-05
0.000259233
-8.84888e-06
-8.51842e-05
0.000365052
-8.12175e-06
-0.000130546
0.000353676
-6.8876e-06
-0.000172092
0.000331251
-4.98169e-06
-0.000207518
0.000302241
-3.40836e-06
-0.000238183
0.000272222
-2.04553e-06
-0.00026517
0.000241952
-9.49135e-07
-0.000289539
0.000212048
-1.18277e-07
-0.000312314
0.000182856
5.03832e-07
-0.000334532
0.000154457
9.44475e-07
-0.000357781
0.000127068
1.26977e-06
-0.000384496
0.000100626
1.53735e-06
-0.000418356
7.48089e-05
1.79004e-06
-0.000465092
4.78499e-05
1.94203e-06
-0.0005299
1.62584e-05
1.59911e-06
-0.000613079
-3.75762e-05
4.22656e-07
-0.000717751
-0.000122978
-2.56564e-06
-0.000769409
-0.000369787
-1.05436e-05
-0.00068216
-0.00070099
-1.94821e-05
-0.00181829
-7.3881e-05
-6.43684e-05
0.000324741
-1.30866e-05
-0.000111921
0.000414021
-1.32706e-05
-0.000158134
0.000401242
-1.06309e-05
-0.000197012
0.000371039
-7.95977e-06
-0.00023263
0.000338438
-5.0309e-06
-0.000264339
0.00030411
-2.57741e-06
-0.000292579
0.000270003
-6.08415e-07
-0.000317871
0.000236777
8.37361e-07
-0.000341353
0.000205433
1.80608e-06
-0.000364498
0.000176387
2.40971e-06
-0.000389708
0.000150728
2.80734e-06
-0.000419666
0.000128615
3.16493e-06
-0.000459266
0.000111864
3.72554e-06
-0.000515147
0.000100418
4.79337e-06
-0.000599624
9.65213e-05
6.76248e-06
-0.000715552
7.43568e-05
1.07197e-05
-0.000871999
3.20003e-05
1.72968e-05
-0.000957684
-0.000280214
2.65231e-05
-0.000758902
-0.000871107
4.6179e-05
-0.00257444
-4.96148e-05
-2.27627e-05
0.000347509
-2.16159e-05
-0.000115006
0.000509074
-1.59839e-05
-0.000182597
0.000471446
-1.20997e-05
-0.000237829
0.000428867
-5.77915e-06
-0.000278208
0.000380549
-2.03764e-06
-0.000308859
0.000335762
1.18251e-06
-0.000332539
0.000294038
3.31606e-06
-0.000351753
0.00025578
4.72891e-06
-0.000368509
0.0002215
5.59356e-06
-0.000383655
0.000190416
6.10562e-06
-0.00039933
0.000164844
6.59085e-06
-0.0004177
0.000144898
7.39448e-06
-0.000444251
0.000135606
9.12616e-06
-0.000487943
0.000140617
1.30095e-05
-0.000570824
0.000175574
2.07524e-05
-0.000695246
0.000197118
3.66322e-05
-0.000877354
0.000223503
6.98436e-05
-0.000946399
-0.000189522
0.000112558
-0.000561704
-0.00118766
0.000151897
-0.00312135
-4.90811e-05
-9.68456e-05
0.000443285
-2.99944e-05
-0.000142601
0.00055434
-3.02218e-05
-0.000196946
0.000526118
-2.32411e-05
-0.000258807
0.000490754
-1.58938e-05
-0.00029789
0.000420252
-7.34858e-06
-0.000325496
0.000363993
-1.11249e-06
-0.000344011
0.000312893
3.58524e-06
-0.000355728
0.000267517
6.60491e-06
-0.000364163
0.000229563
8.4005e-06
-0.000369414
0.000194803
9.20397e-06
-0.000376781
0.000170795
9.73822e-06
-0.000384389
0.000150303
1.03742e-05
-0.00039995
0.000148013
1.26876e-05
-0.000418918
0.000155538
1.84668e-05
-0.000452087
0.000205556
3.34014e-05
-0.00048399
0.000230415
6.34753e-05
-0.000475817
0.000235493
0.000122943
-0.000449903
-0.000177019
0.000199642
-8.41986e-05
-0.00148567
0.00019662
-0.00322389
-0.000145351
-0.000592588
0.00101309
-6.44963e-05
-0.000599865
0.000560824
-2.99483e-05
-0.000556458
0.000487289
-1.54183e-05
-0.000450936
0.000394
2.70684e-06
-0.000343461
0.000322138
1.0677e-05
-0.000236528
0.000266045
1.7973e-05
-0.0001383
0.000222534
2.19066e-05
-4.97675e-05
0.00018539
2.35564e-05
2.78665e-05
0.000156839
2.36995e-05
9.51744e-05
0.000130919
2.22857e-05
0.000157291
0.0001106
2.06418e-05
0.000209445
9.89956e-05
1.93733e-05
0.000275607
8.07252e-05
1.81719e-05
0.000337099
9.16433e-05
2.15952e-05
0.000469706
7.12229e-05
3.25046e-05
0.000614871
8.19478e-05
5.12625e-05
0.00086245
5.6762e-06
0.000105099
0.00103532
-0.000305613
0.000192104
0.000831554
-0.0012559
0.000144051
-0.00248212
-0.000257079
0.000990499
-7.06378e-05
0.00153717
-6.5915e-05
0.00201266
-6.36085e-05
0.00240089
-5.35217e-05
0.00272274
-4.02769e-05
0.00299165
-2.70571e-05
0.00321892
-1.35799e-05
0.00340894
-4.02844e-06
0.00357095
6.91453e-06
0.00370534
1.02829e-05
0.00381945
1.60028e-05
0.00391946
1.64028e-05
0.00400084
1.34956e-05
0.00409266
1.96596e-05
0.00415961
8.98195e-06
0.00424819
2.01999e-05
0.00424641
2.28046e-05
0.0039538
7.61954e-07
0.0026967
4.4166e-05
-0.000327667
-6.23495e-06
6.25487e-06
-2.1528e-07
-1.53878e-05
9.25472e-06
-1.82971e-07
-2.46229e-05
9.34638e-06
-1.55932e-07
-3.3409e-05
8.90008e-06
-1.30558e-07
-4.15391e-05
8.23847e-06
-1.15512e-07