/*--------------------------------*- C++ -*----------------------------------*\
  =========                 |
  \\      /  F ield         | OpenFOAM: The Open Source CFD Toolbox
   \\    /   O peration     | Website:  https://openfoam.org
    \\  /    A nd           | Version:  9
     \\/     M anipulation  |
\*---------------------------------------------------------------------------*/
FoamFile
{
    format      ascii;
    class       volVectorField;
    location    "4";
    object      U;
}
// * * * * * * * * * * * * * * * * * * * * * * * * * * * * * * * * * * * * * //

dimensions      [0 1 -1 0 0 0 0];

internalField   nonuniform List<vector> 
8000
(
(-0.000166387 0.000171771 -8.63916e-06)
(-0.000701125 0.000258469 6.63003e-06)
(-0.00138504 0.000262506 9.3876e-06)
(-0.00200989 0.000252631 1.09423e-05)
(-0.00260903 0.000237385 1.07212e-05)
(-0.0031616 0.000217357 9.45255e-06)
(-0.00365412 0.000192283 7.44184e-06)
(-0.00407362 0.000161877 4.78656e-06)
(-0.00440689 0.000125926 1.49889e-06)
(-0.00464084 8.43651e-05 -2.43502e-06)
(-0.00476278 3.77463e-05 -6.77229e-06)
(-0.00476076 -1.37997e-05 -1.16132e-05)
(-0.00462482 -6.9599e-05 -1.68469e-05)
(-0.00434823 -0.000127852 -2.22682e-05)
(-0.00392884 -0.000186307 -2.75592e-05)
(-0.00337056 -0.000242109 -3.22375e-05)
(-0.00268433 -0.000291767 -3.54756e-05)
(-0.00190426 -0.000330334 -3.57723e-05)
(-0.00100447 -0.00034415 -3.3106e-05)
(-0.000255641 -0.000246225 -1.14021e-05)
(-0.000258189 0.000724376 -2.89971e-05)
(-0.00102326 0.00102532 -1.37928e-05)
(-0.0019697 0.00103403 -1.00833e-05)
(-0.00283708 0.000989409 -6.82559e-06)
(-0.00366344 0.000922393 -5.09156e-06)
(-0.00442051 0.000835822 -4.12407e-06)
(-0.00508983 0.000729648 -3.67202e-06)
(-0.00565411 0.000603721 -3.71319e-06)
(-0.00609622 0.00045812 -4.28983e-06)
(-0.00639928 0.000293337 -5.45748e-06)
(-0.006548 0.000110291 -7.26528e-06)
(-0.00652862 -8.90361e-05 -9.77157e-06)
(-0.00632874 -0.000300329 -1.27316e-05)
(-0.00594043 -0.000517904 -1.61011e-05)
(-0.0053621 -0.000734046 -1.95936e-05)
(-0.00459959 -0.000938785 -2.27141e-05)
(-0.00366785 -0.00111987 -2.4538e-05)
(-0.00261038 -0.00125979 -2.33979e-05)
(-0.00139866 -0.00131004 -1.95885e-05)
(-0.000369174 -0.000972531 4.29172e-06)
(-0.000276723 0.00145946 -3.56608e-05)
(-0.00109597 0.00201462 -2.02891e-05)
(-0.0021082 0.00202545 -1.62535e-05)
(-0.00303533 0.00193365 -1.2436e-05)
(-0.00391909 0.00179751 -1.01208e-05)
(-0.00472976 0.00162285 -8.52674e-06)
(-0.00544818 0.00141032 -7.41416e-06)
(-0.00605636 0.00116029 -6.78546e-06)
(-0.00653638 0.000873481 -6.71579e-06)
(-0.00687108 0.000551266 -7.2835e-06)
(-0.00704378 0.000195768 -8.48898e-06)
(-0.00703752 -0.000188813 -1.04692e-05)
(-0.00683803 -0.000595537 -1.30715e-05)
(-0.00643586 -0.00101388 -1.6222e-05)
(-0.00582664 -0.00142925 -1.96314e-05)
(-0.00501376 -0.00182283 -2.27488e-05)
(-0.00401046 -0.00217156 -2.45512e-05)
(-0.00286276 -0.00244199 -2.31763e-05)
(-0.00153877 -0.00254231 -1.89657e-05)
(-0.00040754 -0.00192133 6.83719e-06)
(-0.000288995 0.00219281 -4.20005e-05)
(-0.00114969 0.00301008 -2.63874e-05)
(-0.00221586 0.00302391 -2.21151e-05)
(-0.00319275 0.0028865 -1.78624e-05)
(-0.00412646 0.00268374 -1.50998e-05)
(-0.00498632 0.00242427 -1.30319e-05)
(-0.00575299 0.00210913 -1.1427e-05)
(-0.00640817 0.00173894 -1.03101e-05)
(-0.00693337 0.00131461 -9.77571e-06)
(-0.00731009 0.000837792 -9.92334e-06)
(-0.00752016 0.000311903 -1.08313e-05)
(-0.00754508 -0.000257622 -1.26895e-05)
(-0.00736635 -0.000862789 -1.52275e-05)
(-0.00696877 -0.001489 -1.84298e-05)
(-0.00634305 -0.00211538 -2.20028e-05)
(-0.00548792 -0.00271383 -2.54089e-05)
(-0.0044125 -0.00324878 -2.74802e-05)
(-0.00316462 -0.00366798 -2.60493e-05)
(-0.00170855 -0.00383124 -2.14542e-05)
(-0.000454228 -0.00291411 6.98215e-06)
(-0.000304938 0.00297624 -4.82772e-05)
(-0.00121943 0.00407532 -3.20883e-05)
(-0.00235598 0.00409342 -2.75998e-05)
(-0.00339824 0.00390931 -2.29858e-05)
(-0.00439774 0.00363829 -1.99086e-05)
(-0.00532272 0.00329207 -1.75518e-05)
(-0.00615382 0.00287215 -1.56846e-05)
(-0.00687258 0.0023792 -1.4348e-05)
(-0.00745997 0.00181402 -1.36578e-05)
(-0.00789634 0.00117801 -1.37462e-05)
(-0.00816127 0.000474097 -1.47363e-05)
(-0.00823326 -0.000291903 -1.67934e-05)
(-0.00808894 -0.00111085 -1.96754e-05)
(-0.00770605 -0.00196552 -2.34372e-05)
(-0.00706688 -0.00282989 -2.77661e-05)
(-0.00616134 -0.00366634 -3.2049e-05)
(-0.0049907 -0.00442429 -3.495e-05)
(-0.00360365 -0.00502742 -3.38158e-05)
(-0.00195884 -0.00527645 -2.8847e-05)
(-0.00052428 -0.00403604 3.56992e-06)
(-0.000325532 0.00381724 -5.56495e-05)
(-0.00130927 0.00522283 -3.86201e-05)
(-0.0025363 0.0052471 -3.38908e-05)
(-0.00366239 0.00501544 -2.88835e-05)
(-0.00474603 0.00467498 -2.54913e-05)
(-0.00575416 0.00424086 -2.28781e-05)
(-0.00666768 0.00371503 -2.08149e-05)
(-0.00746821 0.00309806 -1.93599e-05)
(-0.00813651 0.00239016 -1.86523e-05)
(-0.00865192 0.00159169 -1.88567e-05)
(-0.00899188 0.000704139 -2.01497e-05)
(-0.00913172 -0.000268171 -2.27897e-05)
(-0.00904152 -0.00131772 -2.64127e-05)
(-0.0086892 -0.00242627 -3.12688e-05)
(-0.00804523 -0.003564 -3.70346e-05)
(-0.00708535 -0.00468413 -4.2999e-05)
(-0.00579669 -0.00571866 -4.75772e-05)
(-0.0042249 -0.00655975 -4.73994e-05)
(-0.00231946 -0.00693177 -4.2232e-05)
(-0.000627525 -0.00533634 -4.14173e-06)
(-0.000350779 0.00473021 -6.49961e-05)
(-0.00141994 0.00647313 -4.694e-05)
(-0.00275851 0.00650575 -4.18982e-05)
(-0.00398729 0.00622518 -3.63652e-05)
(-0.00517362 0.00581365 -3.2539e-05)
(-0.00628298 0.00529026 -2.95717e-05)
(-0.00729692 0.00465757 -2.72505e-05)
(-0.00819776 0.00391596 -2.56603e-05)
(-0.00896667 0.00306459 -2.49731e-05)
(-0.00958268 0.00210182 -2.53979e-05)
(-0.0100214 0.00102611 -2.71825e-05)
(-0.0102554 -0.000162025 -3.07391e-05)
(-0.0102473 -0.00145859 -3.5603e-05)
(-0.00995259 -0.00284931 -4.23043e-05)
(-0.00932521 -0.00430391 -5.05452e-05)
(-0.00831901 -0.00576858 -5.95359e-05)
(-0.0068964 -0.00715622 -6.73142e-05)
(-0.00509034 -0.00831806 -6.95233e-05)
(-0.00283498 -0.00887355 -6.47998e-05)
(-0.000780008 -0.00688968 -1.89722e-05)
(-0.000380677 0.0057313 -7.71456e-05)
(-0.00155223 0.00784936 -5.79254e-05)
(-0.00302441 0.00789227 -5.24317e-05)
(-0.00437497 0.00756036 -4.61196e-05)
(-0.00568241 0.00707512 -4.16082e-05)
(-0.00691051 0.00646047 -3.80561e-05)
(-0.00804223 0.00571998 -3.52917e-05)
(-0.00906147 0.00485396 -3.34455e-05)
(-0.00995094 0.00386028 -3.27352e-05)
(-0.0106907 0.00273434 -3.34246e-05)
(-0.011256 0.00146979 -3.58241e-05)
(-0.0116167 6.0119e-05 -4.03104e-05)
(-0.0117291 -0.00149672 -4.74987e-05)
(-0.0115348 -0.00319802 -5.71937e-05)
(-0.0109651 -0.0050193 -6.95601e-05)
(-0.00994166 -0.00690554 -8.38979e-05)
(-0.00838581 -0.00875199 -9.7755e-05)
(-0.00629585 -0.0103611 -0.000105427)
(-0.00358061 -0.0111986 -0.000102903)
(-0.0010115 -0.00880232 -4.72793e-05)
(-0.000415432 0.00683848 -9.3185e-05)
(-0.00170768 0.0093771 -7.26983e-05)
(-0.00333708 0.00943136 -6.64873e-05)
(-0.00482876 0.00904375 -5.89453e-05)
(-0.00627524 0.00848035 -5.3287e-05)
(-0.00763847 0.00777119 -4.8721e-05)
(-0.00890376 0.00692165 -4.51576e-05)
(-0.0100578 0.00593251 -4.27945e-05)
(-0.0110867 0.00480039 -4.19144e-05)
(-0.0119736 0.00351714 -4.28496e-05)
(-0.012696 0.0020699 -4.58865e-05)
(-0.0132222 0.000442294 -5.07922e-05)
(-0.0135058 -0.00138052 -6.2296e-05)
(-0.0134755 -0.00341443 -7.66663e-05)
(-0.0130334 -0.00565284 -9.57367e-05)
(-0.012057 -0.00805215 -0.00011938)
(-0.0104041 -0.0104983 -0.00014484)
(-0.00799188 -0.0127472 -0.000164571)
(-0.00468743 -0.014029 -0.000168737)
(-0.0013794 -0.0112357 -0.000104696)
(-0.000455691 0.00807289 -0.000114758)
(-0.00188935 0.0110859 -9.28985e-05)
(-0.00370191 0.0111504 -8.54543e-05)
(-0.00535437 0.0106993 -7.58772e-05)
(-0.00695696 0.0100502 -6.82479e-05)
(-0.00846966 0.00924081 -6.19099e-05)
(-0.00988136 0.00827982 -5.69185e-05)
(-0.0111832 0.00716954 -5.35679e-05)
(-0.0123668 0.00590609 -5.22306e-05)
(-0.0134217 0.00447792 -5.33905e-05)
(-0.0143314 0.00286483 -5.76759e-05)
(-0.0150676 0.00103814 -6.62814e-05)
(-0.0155863 -0.00103745 -8.04306e-05)
(-0.0158076 -0.00341083 -0.000101257)
(-0.0156036 -0.00610639 -0.000130866)
(-0.0147943 -0.00911626 -0.000170306)
(-0.0131499 -0.0123406 -0.000217467)
(-0.010416 -0.0155147 -0.000263597)
(-0.00639487 -0.0175086 -0.000285217)
(-0.00200125 -0.0144507 -0.000226649)
(-0.000503072 0.00946166 -0.000144596)
(-0.00210308 0.0130121 -0.00012115)
(-0.00412833 0.0130807 -0.00011142)
(-0.00596161 0.0125527 -9.83235e-05)
(-0.00773599 0.0118048 -8.72472e-05)
(-0.00940937 0.0108851 -7.78219e-05)
(-0.0109756 0.00980742 -7.03268e-05)
(-0.0124322 0.00857749 -6.5177e-05)
(-0.013779 0.00719253 -6.28338e-05)
(-0.0150155 0.00563867 -6.39234e-05)
(-0.0161365 0.00388795 -6.94029e-05)
(-0.0171252 0.0018954 -8.11903e-05)
(-0.0179555 -0.000404586 -0.00010242)
(-0.0185451 -0.00307791 -0.000131214)
(-0.0187399 -0.00622877 -0.000176262)
(-0.0183011 -0.00992521 -0.000241199)
(-0.016895 -0.0141305 -0.000327376)
(-0.0139405 -0.0186364 -0.000429831)
(-0.00915788 -0.0217509 -0.000495552)
(-0.00313124 -0.0189201 -0.000498208)
(-0.000561195 0.0110375 -0.000187234)
(-0.00236049 0.0151981 -0.000161446)
(-0.00463335 0.0152574 -0.000147465)
(-0.00666736 0.0146309 -0.000128177)
(-0.00862697 0.0137628 -0.000111022)
(-0.0104676 0.0127152 -9.62358e-05)
(-0.0121896 0.0115101 -8.44385e-05)
(-0.0137988 0.0101593 -7.61719e-05)
(-0.0153064 0.00866418 -7.19189e-05)
(-0.0167271 0.00701214 -7.23682e-05)
(-0.0180755 0.00517258 -7.86838e-05)
(-0.0193612 0.00309135 -9.23018e-05)
(-0.0205607 0.000679928 -0.00011398)
(-0.0216329 -0.00219608 -0.000156753)
(-0.0224528 -0.00574741 -0.000226415)
(-0.0227112 -0.0101486 -0.000330882)
(-0.0219872 -0.0155336 -0.000484379)
(-0.0191166 -0.0219274 -0.000697925)
(-0.0138896 -0.0267708 -0.000870878)
(-0.00539892 -0.0254752 -0.00112517)
(-0.000636345 0.0128878 -0.000254164)
(-0.00267902 0.0177258 -0.000222358)
(-0.00524206 0.0177306 -0.000199155)
(-0.00749742 0.0169616 -0.000167765)
(-0.00965409 0.0159375 -0.00013966)
(-0.0116626 0.0147336 -0.000115688)
(-0.0135319 0.0133816 -9.67195e-05)
(-0.0152785 0.011902 -8.33014e-05)
(-0.0169265 0.010304 -7.56727e-05)
(-0.0185074 0.00857901 -7.42035e-05)
(-0.0200573 0.00669124 -7.97528e-05)
(-0.0216175 0.00456823 -9.44888e-05)
(-0.0232423 0.00209662 -0.000124099)
(-0.0249717 -0.000910684 -0.000192472)
(-0.0266933 -0.00468182 -0.000283452)
(-0.028112 -0.00958961 -0.000438352)
(-0.0288515 -0.0161024 -0.00069012)
(-0.026788 -0.0249325 -0.00109573)
(-0.0222982 -0.0322603 -0.00148508)
(-0.0101993 -0.0355488 -0.00254236)
(-0.000771413 0.0149046 -0.000350902)
(-0.00314883 0.0206752 -0.000317349)
(-0.00602867 0.0205655 -0.000276458)
(-0.00850593 0.0196551 -0.000225406)
(-0.0108568 0.0183997 -0.000175867)
(-0.0130233 0.0169637 -0.000134132)
(-0.0150209 0.0154097 -0.000102095)
(-0.016876 0.0137735 -8.01706e-05)
(-0.0186291 0.0120745 -6.76032e-05)
(-0.0203403 0.0103187 -6.42894e-05)
(-0.022088 0.008501 -7.22593e-05)
(-0.0239591 0.00658256 -9.50824e-05)
(-0.0260443 0.00446213 -0.000135578)
(-0.0284181 0.00192494 -0.000188246)
(-0.0311447 -0.00143893 -0.000261061)
(-0.0341948 -0.00643274 -0.000444881)
(-0.0376091 -0.0137949 -0.000792933)
(-0.0378715 -0.0260646 -0.00149976)
(-0.0370369 -0.0368963 -0.00218295)
(-0.0202038 -0.0516967 -0.00509821)
(-0.000730569 0.0179922 -0.000547835)
(-0.00350469 0.0236764 -0.000433723)
(-0.00697011 0.0234066 -0.000371835)
(-0.00970583 0.0219985 -0.000261996)
(-0.0123441 0.0205467 -0.000184654)
(-0.0146499 0.0189787 -0.000123403)
(-0.0167192 0.0173257 -7.82323e-05)
(-0.0186105 0.0155954 -4.68929e-05)
(-0.0203771 0.013816 -2.70118e-05)
(-0.0220746 0.012015 -1.6843e-05)
(-0.0237837 0.0102102 -1.43395e-05)
(-0.0256423 0.00838343 -1.86901e-05)
(-0.0278799 0.00646778 -2.9485e-05)
(-0.0308444 0.00425568 -5.35956e-05)
(-0.0350147 0.00132872 -0.000153613)
(-0.0405088 -0.00329907 -0.000298831)
(-0.0488091 -0.0103471 -0.000556624)
(-0.053662 -0.0248989 -0.00118275)
(-0.0608164 -0.0399277 -0.00146784)
(-0.0368754 -0.0799068 -0.00704518)
(-0.00228181 0.0200049 -0.000855924)
(-0.00573942 0.0298556 -0.00083955)
(-0.00854799 0.0285286 -0.000646001)
(-0.0114336 0.0273631 -0.000488544)
(-0.0138825 0.025022 -0.000306019)
(-0.0162483 0.0226446 -0.000166341)
(-0.0184035 0.0202673 -6.11771e-05)
(-0.0203808 0.0179974 7.85176e-06)
(-0.0222006 0.0158966 4.64826e-05)
(-0.0239344 0.0139975 5.96024e-05)
(-0.0257058 0.012356 5.48934e-05)
(-0.0276847 0.0110151 3.80662e-05)
(-0.0301508 0.0100537 1.9754e-05)
(-0.0335312 0.00947711 1.90629e-05)
(-0.0386719 0.00915207 7.10783e-05)
(-0.0458735 0.00753052 0.000359063)
(-0.0591103 0.00473569 0.00100327)
(-0.0691144 -0.0142381 0.00205335)
(-0.0879518 -0.0415346 0.00563411)
(-0.0472695 -0.136239 -0.00398617)
(0.000974749 0.0301382 -0.00159984)
(-0.00337926 0.0293875 -0.000905328)
(-0.0103257 0.0291283 -0.000634125)
(-0.0131647 0.02594 -0.000168043)
(-0.0169949 0.0240747 3.58252e-05)
(-0.0193304 0.0220699 0.000198175)
(-0.0212801 0.0201339 0.000285488)
(-0.0228629 0.0181953 0.000328011)
(-0.0242078 0.0163134 0.000340265)
(-0.0253813 0.0145245 0.000332873)
(-0.0264587 0.0129888 0.000323045)
(-0.0275555 0.0117552 0.000328018)
(-0.0289296 0.0111382 0.000382241)
(-0.0310648 0.0111373 0.000590017)
(-0.0359012 0.012447 0.00110166)
(-0.0424698 0.0124911 0.00243665)
(-0.0637678 0.0124257 0.00582975)
(-0.0775581 -0.0136279 0.0100275)
(-0.108562 -0.0696877 0.0169216)
(-0.0327581 -0.221276 -0.00317436)
(-0.00552212 0.0230343 -0.00235876)
(-0.014155 0.0488922 -0.00232364)
(-0.011194 0.042334 -0.00167385)
(-0.0167169 0.0397932 -0.00113602)
(-0.0182102 0.0342831 -0.000441941)
(-0.0202663 0.0297297 1.26989e-05)
(-0.021628 0.0255718 0.000334599)
(-0.0227407 0.0219986 0.000512471)
(-0.0236131 0.0190204 0.000595869)
(-0.0242487 0.0165106 0.000598276)
(-0.0248215 0.0146628 0.000577258)
(-0.0252882 0.0134963 0.000541991)
(-0.0261186 0.013546 0.000614861)
(-0.0268973 0.0153525 0.00094552)
(-0.0308798 0.0208709 0.00210921)
(-0.0322553 0.0261951 0.00477798)
(-0.0512631 0.0339233 0.0110782)
(-0.0492137 -0.00627501 0.018291)
(-0.0882898 -0.105197 0.0194897)
(0.00132028 -0.282238 -0.0165516)
(-0.0504608 0.0650593 -0.00720538)
(-0.0309263 0.0324616 -0.00237278)
(-0.0377587 0.0327507 -0.000706297)
(-0.0243977 0.0289994 0.0011363)
(-0.0186263 0.0243092 0.00180592)
(-0.0104424 0.0209973 0.00229467)
(-0.00417742 0.0183292 0.0024568)
(0.00136609 0.0159293 0.00241084)
(0.00587428 0.0139767 0.00225405)
(0.00998609 0.012044 0.00198493)
(0.0133045 0.0109426 0.00171134)
(0.0169606 0.00964212 0.00150276)
(0.0200754 0.00994564 0.00123617)
(0.0259948 0.00969211 0.0013818)
(0.0277305 0.0120766 0.00225397)
(0.0474503 0.0108618 0.00364605)
(0.0374502 0.00318976 0.00992793)
(0.0769343 -0.0435288 0.01885)
(0.00435483 -0.171014 0.0110555)
(0.0409579 -0.303636 -0.0343071)
(0.0907483 0.10295 -0.00774224)
(0.116608 0.0558049 -0.00653943)
(0.172009 0.0394625 -0.00609494)
(0.209828 0.0276204 -0.00471163)
(0.237668 0.0202933 -0.00309866)
(0.259697 0.0150146 -0.00171867)
(0.276471 0.0114424 -0.000492378)
(0.290376 0.00888526 0.000279992)
(0.299352 0.00721841 0.0011201)
(0.309319 0.00596222 0.00118108)
(0.312092 0.0048247 0.00159968)
(0.322924 0.00461672 0.00128947)
(0.319043 0.00259199 0.00112401)
(0.336252 0.0044474 0.00144783)
(0.322016 -0.000737065 9.82913e-05)
(0.352422 0.00326665 0.00251654)
(0.314931 -0.00693779 0.000286163)
(0.349862 -0.0188155 0.00274144)
(0.226932 -0.0494672 0.00367013)
(0.149983 -0.115165 -0.0497077)
(-0.00024033 0.000240662 -1.84453e-05)
(-0.000994361 0.000370781 3.66164e-07)
(-0.00194619 0.000376288 4.56095e-06)
(-0.0028097 0.000359839 7.32299e-06)
(-0.00363022 0.000335123 7.66373e-06)
(-0.00437984 0.000303346 6.51132e-06)
(-0.00504085 0.000264362 4.21652e-06)
(-0.00559637 0.000218014 8.5786e-07)
(-0.00602957 0.000164276 -3.57147e-06)
(-0.00632404 0.000103335 -9.08891e-06)
(-0.00646471 3.58093e-05 -1.5564e-05)
(-0.00643799 -3.77831e-05 -2.2947e-05)
(-0.00623271 -0.000116074 -3.09694e-05)
(-0.00584223 -0.000196767 -3.92938e-05)
(-0.00526561 -0.000276877 -4.7391e-05)
(-0.00450923 -0.000352678 -5.44798e-05)
(-0.00358773 -0.000419609 -5.93193e-05)
(-0.00254375 -0.000470898 -5.98405e-05)
(-0.00134042 -0.000485563 -5.6121e-05)
(-0.000340504 -0.00033551 -2.63673e-05)
(-0.000383078 0.00100582 -4.68016e-05)
(-0.00148982 0.00145535 -2.82558e-05)
(-0.00283952 0.001467 -2.25175e-05)
(-0.00406914 0.00139626 -1.71502e-05)
(-0.00523011 0.00129185 -1.40016e-05)
(-0.00628359 0.00115893 -1.21121e-05)
(-0.00720461 0.000998249 -1.11668e-05)
(-0.00796999 0.000810379 -1.11524e-05)
(-0.00855749 0.000596251 -1.21435e-05)
(-0.00894599 0.000357327 -1.42302e-05)
(-0.00911716 9.54249e-05 -1.75091e-05)
(-0.00905485 -0.000185999 -2.20163e-05)
(-0.00874568 -0.00048067 -2.73301e-05)
(-0.00818257 -0.000780835 -3.32792e-05)
(-0.00736609 -0.00107618 -3.9341e-05)
(-0.00630607 -0.00135361 -4.46767e-05)
(-0.00502332 -0.00159713 -4.78719e-05)
(-0.00357344 -0.00178278 -4.65991e-05)
(-0.00191579 -0.0018367 -4.13537e-05)
(-0.000506808 -0.00132181 -8.60692e-06)
(-0.000414045 0.00201721 -5.73201e-05)
(-0.00160709 0.00284391 -3.88762e-05)
(-0.003059 0.00285802 -3.26117e-05)
(-0.00438082 0.00271502 -2.63635e-05)
(-0.00562893 0.00250595 -2.2277e-05)
(-0.00676217 0.0022411 -1.93779e-05)
(-0.00775448 0.00192282 -1.73856e-05)
(-0.00858168 0.0015531 -1.63408e-05)
(-0.00922051 0.00113437 -1.63682e-05)
(-0.00964935 0.000669859 -1.75965e-05)
(-0.0098482 0.000163811 -2.00531e-05)
(-0.00979743 -0.000377033 -2.38789e-05)
(-0.00948152 -0.000942418 -2.88004e-05)
(-0.00889153 -0.00151781 -3.46125e-05)
(-0.00802494 -0.00208372 -4.07749e-05)
(-0.00688887 -0.0026156 -4.6351e-05)
(-0.00550245 -0.0030833 -4.97593e-05)
(-0.00392458 -0.00344113 -4.83675e-05)
(-0.00211 -0.00355027 -4.27176e-05)
(-0.000559898 -0.00260499 -7.44839e-06)
(-0.00043519 0.00302389 -6.80688e-05)
(-0.00169387 0.00423874 -4.97069e-05)
(-0.00322807 0.00425601 -4.30021e-05)
(-0.00462491 0.00404217 -3.59774e-05)
(-0.00594658 0.00373111 -3.10846e-05)
(-0.00715044 0.00333801 -2.73427e-05)
(-0.0082101 0.00286652 -2.44976e-05)
(-0.00910098 0.00231966 -2.26253e-05)
(-0.00979904 0.00170079 -2.18937e-05)
(-0.0102812 0.00101424 -2.24765e-05)
(-0.0105255 0.000266344 -2.45104e-05)
(-0.0105103 -0.000533943 -2.82466e-05)
(-0.0102148 -0.00137409 -3.3276e-05)
(-0.00962334 -0.00223389 -3.94704e-05)
(-0.00872761 -0.00308534 -4.62682e-05)
(-0.00752905 -0.00389176 -5.27108e-05)
(-0.00604187 -0.00460684 -5.69656e-05)
(-0.00432739 -0.00515946 -5.59064e-05)
(-0.00233515 -0.00533866 -5.00066e-05)
(-0.000621258 -0.00394216 -1.10178e-05)
(-0.000462626 0.00409807 -7.93517e-05)
(-0.00180618 0.00572916 -6.07107e-05)
(-0.00344732 0.00575051 -5.35483e-05)
(-0.00494214 0.00546305 -4.5774e-05)
(-0.00636011 0.00504626 -4.01786e-05)
(-0.00765693 0.00452064 -3.57696e-05)
(-0.00880605 0.00389125 -3.23178e-05)
(-0.00978268 0.00316195 -2.99421e-05)
(-0.0105622 0.00233671 -2.88623e-05)
(-0.01112 0.00142015 -2.93182e-05)
(-0.0114315 0.000418748 -3.15272e-05)
(-0.0114711 -0.000657456 -3.57318e-05)
(-0.0112121 -0.00179383 -4.15996e-05)
(-0.0106302 -0.00296623 -4.91075e-05)
(-0.00970671 -0.00413938 -5.76612e-05)
(-0.00843252 -0.00526387 -6.61528e-05)
(-0.00681246 -0.0062739 -7.24289e-05)
(-0.00490902 -0.00706592 -7.25664e-05)
(-0.0026645 -0.0073418 -6.67097e-05)
(-0.000712527 -0.00544954 -2.18126e-05)
(-0.000498321 0.00525233 -9.28819e-05)
(-0.00195164 0.00733512 -7.37173e-05)
(-0.00373066 0.00736187 -6.59925e-05)
(-0.00535142 0.00699761 -5.73203e-05)
(-0.00689274 0.0064711 -5.09113e-05)
(-0.00830831 0.00580879 -4.577e-05)
(-0.00957182 0.00501725 -4.17041e-05)
(-0.0106587 0.00410106 -3.88878e-05)
(-0.011544 0.00306418 -3.76042e-05)
(-0.0122022 0.00191055 -3.81702e-05)
(-0.012606 0.000645437 -4.09104e-05)
(-0.0127255 -0.000722518 -4.62302e-05)
(-0.0125259 -0.00217974 -5.37044e-05)
(-0.011971 -0.00370019 -6.35853e-05)
(-0.0110274 -0.00524288 -7.52744e-05)
(-0.00966872 -0.00674595 -8.74853e-05)
(-0.00788277 -0.00812063 -9.75971e-05)
(-0.00572843 -0.009221 -0.000100495)
(-0.00313639 -0.00963744 -9.54562e-05)
(-0.000846024 -0.00719429 -4.20896e-05)
(-0.000542761 0.00650787 -0.000110133)
(-0.00213264 0.00908666 -9.03332e-05)
(-0.00408264 0.00911988 -8.18317e-05)
(-0.00585847 0.00867418 -7.19149e-05)
(-0.00755087 0.0080325 -6.43506e-05)
(-0.00911125 0.00722814 -5.81647e-05)
(-0.0105142 0.00626954 -5.32351e-05)
(-0.0117362 0.00516195 -4.98173e-05)
(-0.0127532 0.00390871 -4.82825e-05)
(-0.0135392 0.00251183 -4.90552e-05)
(-0.014065 0.000973293 -5.26114e-05)
(-0.0142967 -0.000702336 -5.96164e-05)
(-0.0141902 -0.00250657 -6.96271e-05)
(-0.0136938 -0.00441611 -8.33179e-05)
(-0.0127533 -0.00638865 -0.000100179)
(-0.0113157 -0.00835219 -0.000118799)
(-0.00933859 -0.0101922 -0.000135894)
(-0.00686528 -0.0117075 -0.000144674)
(-0.00380724 -0.0123369 -0.000142339)
(-0.00104157 -0.00927902 -7.76801e-05)
(-0.000596548 0.007888 -0.00013266)
(-0.00235198 0.0110169 -0.00011221)
(-0.00450846 0.0110567 -0.000102551)
(-0.00646948 0.0105226 -9.07768e-05)
(-0.00834089 0.00975801 -8.14248e-05)
(-0.0100716 0.00880452 -7.35885e-05)
(-0.0116384 0.00767312 -6.72717e-05)
(-0.0130199 0.00636997 -6.2852e-05)
(-0.0141945 0.00489737 -6.08212e-05)
(-0.015138 0.00325405 -6.1743e-05)
(-0.0158205 0.00143631 -6.62675e-05)
(-0.0162057 -0.000558898 -7.51811e-05)
(-0.0162401 -0.00273482 -8.93122e-05)
(-0.0158535 -0.00507716 -0.00010884)
(-0.0149645 -0.00755094 -0.000133927)
(-0.0134796 -0.0100811 -0.000163342)
(-0.0113061 -0.0125282 -0.000193033)
(-0.00844399 -0.0146233 -0.000213927)
(-0.00477338 -0.015586 -0.000218572)
(-0.00133651 -0.0118546 -0.000140517)
(-0.00066077 0.00941826 -0.000162559)
(-0.00261406 0.0131619 -0.00014152)
(-0.00501579 0.0132063 -0.000130029)
(-0.00719326 0.0125732 -0.000115357)
(-0.00927137 0.0116747 -0.000103128)
(-0.0111966 0.0105625 -9.25971e-05)
(-0.0129492 0.00925143 -8.398e-05)
(-0.0145125 0.00774934 -7.78264e-05)
(-0.0158696 0.00605737 -7.47866e-05)
(-0.0170007 0.00416973 -7.55988e-05)
(-0.0178784 0.0020741 -8.10594e-05)
(-0.0184683 -0.0002466 -9.18432e-05)
(-0.0187089 -0.00280702 -0.000112275)
(-0.0185104 -0.00562069 -0.000140319)
(-0.0177585 -0.0086728 -0.000178084)
(-0.0163029 -0.0119004 -0.000225301)
(-0.0139717 -0.0151492 -0.000277595)
(-0.0106631 -0.0180807 -0.000323034)
(-0.00620843 -0.0195797 -0.000344125)
(-0.00180661 -0.0151605 -0.000256075)
(-0.000737369 0.011128 -0.000202967)
(-0.0029259 0.0155624 -0.000181412)
(-0.00561635 0.0156054 -0.000166879)
(-0.00804278 0.0148572 -0.000147535)
(-0.0103544 0.0138085 -0.000130585)
(-0.0124955 0.012524 -0.000115618)
(-0.0144521 0.0110246 -0.000103191)
(-0.0162146 0.00932098 -9.40868e-05)
(-0.0177748 0.00741378 -8.91488e-05)
(-0.0191219 0.00529226 -8.93634e-05)
(-0.0202375 0.00293349 -9.59006e-05)
(-0.0210874 0.000302363 -0.00011033)
(-0.0216148 -0.00263986 -0.00013718)
(-0.02172 -0.00594754 -0.000176755)
(-0.0212459 -0.00964864 -0.000233324)
(-0.01997 -0.0137227 -0.000309045)
(-0.0176092 -0.0180303 -0.000401012)
(-0.0138448 -0.0221922 -0.000495909)
(-0.00844146 -0.0245734 -0.000554115)
(-0.0026142 -0.0196109 -0.000479085)
(-0.000829886 0.0130538 -0.000258936)
(-0.00329902 0.0182674 -0.000236779)
(-0.00632822 0.018295 -0.000216951)
(-0.00903748 0.0174063 -0.000189837)
(-0.0116076 0.0161832 -0.000165037)
(-0.0139813 0.0147069 -0.000142767)
(-0.0161531 0.0130068 -0.000124097)
(-0.0181242 0.011099 -0.000110097)
(-0.0198992 0.00898512 -0.000101789)
(-0.0214819 0.00664997 -0.000100387)
(-0.0228692 0.00405879 -0.000107609)
(-0.0240424 0.00115567 -0.000126625)
(-0.0249597 -0.00213863 -0.000162508)
(-0.02552 -0.00591735 -0.000215351)
(-0.0255359 -0.0103006 -0.000297701)
(-0.0247048 -0.0153616 -0.00041668)
(-0.0226111 -0.0210445 -0.000575729)
(-0.0185172 -0.0270214 -0.000767955)
(-0.0121344 -0.0308437 -0.000909278)
(-0.00413523 -0.0260173 -0.000931036)
(-0.000944827 0.0152336 -0.000338593)
(-0.00375348 0.0213293 -0.000314941)
(-0.00718086 0.0213174 -0.00028585)
(-0.0102072 0.0202524 -0.000245642)
(-0.0130572 0.0188194 -0.000207694)
(-0.0156729 0.0171218 -0.000173417)
(-0.0180609 0.0152027 -0.00014465)
(-0.0202373 0.0130863 -0.000122779)
(-0.0222248 0.0107786 -0.000108866)
(-0.0240493 0.00826322 -0.000104145)
(-0.0257329 0.00549818 -0.000110562)
(-0.0272861 0.00240994 -0.000130787)
(-0.0286892 -0.00112035 -0.000167304)
(-0.0298834 -0.00528845 -0.000239213)
(-0.0306938 -0.0103177 -0.000357621)
(-0.0307459 -0.0164513 -0.000538487)
(-0.0295124 -0.0238545 -0.000805886)
(-0.0255201 -0.0324732 -0.00117802)
(-0.0187012 -0.0386042 -0.00150272)
(-0.00736675 -0.0359968 -0.0019041)
(-0.00108933 0.0177867 -0.00046021)
(-0.00431154 0.0248479 -0.000430033)
(-0.00821237 0.0247296 -0.000383008)
(-0.011593 0.0234186 -0.000319041)
(-0.0147416 0.0217237 -0.000258792)
(-0.0175989 0.0197653 -0.000204981)
(-0.0201893 0.0176014 -0.000160232)
(-0.0225489 0.0152675 -0.000126115)
(-0.0247229 0.0127777 -0.000103277)
(-0.0267626 0.0101164 -9.22068e-05)
(-0.0287222 0.00722818 -9.40418e-05)
(-0.0306601 0.00400802 -0.000112212)
(-0.0326568 0.000298809 -0.00015556)
(-0.0347166 -0.00412522 -0.000255435)
(-0.0367027 -0.0095754 -0.000401658)
(-0.0382972 -0.0166081 -0.000654064)
(-0.0390025 -0.0258206 -0.00107096)
(-0.0361964 -0.0380374 -0.00174158)
(-0.0309105 -0.0476686 -0.00242253)
(-0.0146915 -0.0526991 -0.00400631)
(-0.00134202 0.0204973 -0.000634469)
(-0.00512684 0.0289316 -0.000604573)
(-0.00953438 0.0286181 -0.000525015)
(-0.0132754 0.0270699 -0.000423627)
(-0.0167132 0.0250027 -0.000322876)
(-0.0197955 0.0226778 -0.000234254)
(-0.0225588 0.0201962 -0.000162562)
(-0.0250609 0.0176135 -0.000109511)
(-0.027376 0.0149533 -7.42357e-05)
(-0.0295998 0.0122131 -5.59126e-05)
(-0.0318442 0.0093682 -5.61551e-05)
(-0.0342205 0.00634436 -7.89515e-05)
(-0.0368293 0.00298175 -0.000127625)
(-0.0397679 -0.00102161 -0.00019727)
(-0.043199 -0.00630858 -0.000315463)
(-0.0471168 -0.0138241 -0.000597465)
(-0.0515446 -0.0246148 -0.00114382)
(-0.0521534 -0.0416158 -0.00222961)
(-0.0526666 -0.0565284 -0.0033997)
(-0.0295245 -0.082538 -0.00762146)
(-0.00126337 0.024619 -0.000957531)
(-0.0056716 0.0329257 -0.000816858)
(-0.0110918 0.0324132 -0.000698892)
(-0.0152609 0.0301355 -0.000499046)
(-0.0191309 0.0277962 -0.000346712)
(-0.0224012 0.0252659 -0.000218386)
(-0.0252492 0.0226256 -0.000117791)
(-0.0277872 0.0198956 -4.30662e-05)
(-0.030117 0.0171114 8.76727e-06)
(-0.0323378 0.0142917 4.2084e-05)
(-0.0345752 0.0114343 6.2529e-05)
(-0.0370242 0.00847988 7.40568e-05)
(-0.0399903 0.00529685 7.93036e-05)
(-0.0439576 0.00156374 6.89807e-05)
(-0.049446 -0.00330708 -2.99839e-05)
(-0.0566866 -0.0104117 -0.000204833)
(-0.0674043 -0.0210015 -0.000576036)
(-0.073834 -0.0413943 -0.00147485)
(-0.0845389 -0.0640584 -0.00212128)
(-0.0454262 -0.137814 -0.00990354)
(-0.00357695 0.0267458 -0.00144316)
(-0.00908658 0.041263 -0.00144862)
(-0.0135177 0.0392849 -0.00114243)
(-0.017996 0.0373261 -0.000865536)
(-0.0216016 0.0336933 -0.000546516)
(-0.0249823 0.030052 -0.000289652)
(-0.0279353 0.0264392 -8.77367e-05)
(-0.0305743 0.0230053 5.25711e-05)
(-0.0329728 0.0198131 0.000140417)
(-0.0352657 0.0168813 0.000185933)
(-0.0376401 0.0142506 0.0002047)
(-0.0403341 0.0119369 0.000211535)
(-0.0437102 0.00998412 0.000229721)
(-0.0483197 0.00835852 0.000293514)
(-0.0550825 0.00679441 0.000459535)
(-0.0645362 0.00343266 0.00096399)
(-0.080777 -0.00230025 0.00198153)
(-0.0895685 -0.0304221 0.00369573)
(-0.110081 -0.0742015 0.00805926)
(-0.032348 -0.224032 -0.00566501)
(0.000769573 0.0396428 -0.00253674)
(-0.00570614 0.0396405 -0.00163246)
(-0.0165173 0.0393823 -0.00119788)
(-0.0207674 0.0348652 -0.000465531)
(-0.0262718 0.0322483 -0.000101222)
(-0.0295224 0.0292615 0.000215585)
(-0.0321785 0.0263425 0.000416753)
(-0.0342704 0.0233968 0.000538481)
(-0.0360283 0.0205329 0.000601975)
(-0.0375816 0.017784 0.000627626)
(-0.0390674 0.0153388 0.00064888)
(-0.0406795 0.0132104 0.000701346)
(-0.0427483 0.011765 0.000850951)
(-0.0459238 0.0109717 0.00126163)
(-0.0522109 0.0116375 0.00217097)
(-0.0600027 0.0105342 0.00428512)
(-0.0830647 0.00791191 0.00916646)
(-0.0865984 -0.0281779 0.0154931)
(-0.113492 -0.105931 0.0239557)
(0.0114222 -0.300845 -0.0047286)
(-0.00295989 0.0269422 -0.0035882)
(-0.0153007 0.0650856 -0.00361083)
(-0.0142467 0.0572688 -0.00272968)
(-0.0244684 0.0539846 -0.00189536)
(-0.0279166 0.0464993 -0.000831299)
(-0.031601 0.0401991 -9.72177e-05)
(-0.0336595 0.0343647 0.000445443)
(-0.0350825 0.0292831 0.000774995)
(-0.0360164 0.0249731 0.00095558)
(-0.0366124 0.0212718 0.00101132)
(-0.0372196 0.0184229 0.00103015)
(-0.037807 0.0165226 0.00104403)
(-0.0390337 0.0160411 0.00124858)
(-0.0401494 0.0180036 0.00188139)
(-0.0445666 0.0245042 0.00375337)
(-0.0432598 0.0300178 0.00774996)
(-0.0575513 0.0384058 0.0162653)
(-0.0337333 -0.00857301 0.026963)
(-0.0646663 -0.132377 0.0297228)
(0.0526761 -0.331788 -0.0182722)
(-0.0721837 0.0680778 -0.0091881)
(-0.0506152 0.0415865 -0.00337537)
(-0.0657055 0.0443618 -0.00130051)
(-0.0479704 0.0397877 0.0011063)
(-0.0407422 0.0338377 0.00204541)
(-0.0285645 0.0293184 0.0028621)
(-0.0185144 0.0254676 0.00322639)
(-0.00902775 0.0219443 0.00329965)
(-0.000943281 0.0190799 0.00319431)
(0.00657273 0.0161212 0.00290614)
(0.0126589 0.0144603 0.00259243)
(0.0187593 0.0123259 0.00235296)
(0.0237652 0.0125424 0.00205412)
(0.0320221 0.0118348 0.0023564)
(0.0342293 0.0147849 0.00367041)
(0.063258 0.013844 0.00571823)
(0.0541802 0.0045276 0.0134597)
(0.120169 -0.0317338 0.0258352)
(0.074223 -0.181735 0.0209158)
(0.109917 -0.341008 -0.0349303)
(0.0881237 0.123069 -0.0100224)
(0.120436 0.0747941 -0.00877067)
(0.178182 0.0566661 -0.0083205)
(0.222938 0.0427974 -0.00672411)
(0.257529 0.0337025 -0.0047933)
(0.287051 0.0265592 -0.0030265)
(0.310779 0.021219 -0.00130128)
(0.333464 0.0169097 -0.000183778)
(0.347767 0.0136996 0.00117965)
(0.367802 0.0112607 0.00145905)
(0.371912 0.00858598 0.00215545)
(0.394261 0.00840371 0.00209605)
(0.387482 0.00428569 0.00161012)
(0.415986 0.00745889 0.00244711)
(0.398471 0.000605884 0.000786082)
(0.435096 0.00408665 0.00256507)
(0.402897 -0.00259089 0.00269562)
(0.432374 -0.0210317 -0.000294365)
(0.337206 -0.045739 0.00635693)