/*--------------------------------*- C++ -*----------------------------------*\
  =========                 |
  \\      /  F ield         | OpenFOAM: The Open Source CFD Toolbox
   \\    /   O peration     | Website:  https://openfoam.org
    \\  /    A nd           | Version:  9
     \\/     M anipulation  |
\*---------------------------------------------------------------------------*/
FoamFile
{
    format      ascii;
    class       volScalarField;
    location    "7";
    object      p;
}
// * * * * * * * * * * * * * * * * * * * * * * * * * * * * * * * * * * * * * //

dimensions      [0 2 -2 0 0 0 0];

internalField   nonuniform List<scalar> 
400
(
-1.21997e-07
7.26164e-07
4.63031e-05
0.000121823
0.000232772
0.000380546
0.000567468
0.000795952
0.00106801
0.00138479
0.00174592
0.00214857
0.00258637
0.00304829
0.00351724
0.00396947
0.00437571
0.00469848
0.00491995
0.00497695
-8.2733e-07
-4.36241e-07
4.54737e-05
0.000119445
0.00022787
0.000372305
0.000555299
0.000779522
0.00104733
0.00136036
0.00171886
0.00212044
0.00255931
0.00302647
0.00350477
0.00397048
0.00439314
0.00473228
0.00496856
0.00503008
-5.198e-05
-5.40621e-05
-1.00481e-05
6.07338e-05
0.000165233
0.000305154
0.000483449
0.000703387
0.000968153
0.00128041
0.00164168
0.00205165
0.00250672
0.00299852
0.00351111
0.00401997
0.00449136
0.00487755
0.00515178
0.00522699
-0.000138002
-0.000142288
-0.000101229
-3.52987e-05
6.30899e-05
0.00019589
0.000366661
0.000579543
0.000838979
0.00114937
0.0015144
0.00193616
0.0024134
0.00294232
0.00350845
0.00408748
0.00464171
0.00511059
0.00545244
0.0055593
-0.000261711
-0.000268711
-0.000231861
-0.000172625
-8.2744e-05
4.00365e-05
0.000200008
0.000402375
0.000653143
0.000958943
0.00132657
0.00176207
0.00226979
0.00284559
0.00348483
0.0041639
0.00484092
0.00544199
0.00589561
0.00606778
-0.00042122
-0.000431604
-0.000400329
-0.000349945
-0.000271514
-0.000162527
-1.79594e-05
0.000168507
0.000404584
0.000699448
0.00106356
0.001508
0.00204263
0.00267419
0.00340393
0.00421595
0.00506679
0.00586973
0.00650582
0.00681338
-0.000614031
-0.000628552
-0.000604355
-0.000565322
-0.000501887
-0.000411453
-0.000288404
-0.000125455
8.67331e-05
0.000359935
0.000708615
0.00114988
0.00170235
0.00238329
0.00321121
0.00418638
0.005271
0.00637261
0.0073083
0.00789915
-0.000837132
-0.000856586
-0.000841034
-0.00081606
-0.000771604
-0.000705278
-0.000611261
-0.000481694
-0.000306053
-7.03529e-05
0.000243711
0.000659733
0.00120729
0.00192107
0.00282622
0.0039774
0.00535253
0.0068785
0.00828543
0.00951289
-0.00108677
-0.00111193
-0.00110648
-0.00109825
-0.00107689
-0.00104064
-0.000984095
-0.000899636
-0.000776532
-0.000599761
-0.000348599
5.30866e-06
0.000499874
0.0011812
0.00208869
0.00340599
0.00509495
0.00716952
0.00932925
0.011793
-0.00135848
-0.00138998
-0.00139569
-0.00140647
-0.00141197
-0.00141161
-0.00140114
-0.00137424
-0.00132159
-0.00122944
-0.00107741
-0.000835264
-0.000457673
0.000125267
0.00102715
0.00224044
0.00410725
0.0067099
0.00987184
0.014313
-0.00164727
-0.00168571
-0.00170295
-0.00173418
-0.00176917
-0.00180931
-0.00185255
-0.00189506
-0.00193093
-0.00195078
-0.00193989
-0.00187523
-0.00172051
-0.0014182
-0.000881084
7.72477e-06
0.00152531
0.00407433
0.00743258
0.0139072
-0.00194731
-0.001992
-0.00201873
-0.00206943
-0.00213482
-0.00221842
-0.00232083
-0.00244202
-0.00258111
-0.00273621
-0.00290389
-0.0030788
-0.00325301
-0.00341503
-0.00357241
-0.00377294
-0.00380756
-0.00273769
-0.000385495
0.00679524
-0.00225889
-0.00231899
-0.0023549
-0.00242964
-0.00252208
-0.00264477
-0.0028022
-0.00300115
-0.00324924
-0.00355604
-0.00393532
-0.00441
-0.00502108
-0.00584495
-0.00706245
-0.00902263
-0.0120908
-0.0136795
-0.0119659
-0.0049232
-0.00255745
-0.00260422
-0.00263473
-0.0027047
-0.00281799
-0.00298278
-0.00320531
-0.00349241
-0.00385524
-0.0043118
-0.00489302
-0.00565336
-0.00669479
-0.00817953
-0.0105152
-0.0142825
-0.0208779
-0.0253699
-0.0252871
-0.0169673
-0.00287788
-0.00299708
-0.00301933
-0.00314915
-0.00326695
-0.00345036
-0.00369311
-0.00402042
-0.00445315
-0.00502169
-0.00576995
-0.00677307
-0.00818936
-0.0101893
-0.0135386
-0.0182726
-0.0278214
-0.0339275
-0.0371822
-0.025651
-0.00328535
-0.00321686
-0.00319134
-0.00317733
-0.00328282
-0.00348747
-0.00379567
-0.00421057
-0.0047469
-0.0054288
-0.00630423
-0.00744035
-0.00904607
-0.0111806
-0.0149237
-0.019527
-0.0298508
-0.0351068
-0.0396273
-0.0245605
-0.00316066
-0.00370294
-0.00365969
-0.00394598
-0.00398189
-0.00416672
-0.00438686
-0.0047364
-0.00521948
-0.00587189
-0.00672797
-0.00782692
-0.00942632
-0.0113271
-0.0147793
-0.0190962
-0.0268532
-0.0314872
-0.0330017
-0.0114652
-0.00514133
-0.00392466
-0.00372492
-0.00321463
-0.00322974
-0.00342851
-0.00379619
-0.00428797
-0.00490598
-0.00565951
-0.00656815
-0.00765265
-0.00908156
-0.0107478
-0.0131561
-0.0159343
-0.0199399
-0.0214726
-0.0188516
0.0128747
-0.00179057
-0.00509339
-0.00449193
-0.00510295
-0.00471355
-0.00482491
-0.00486419
-0.00511327
-0.00551157
-0.00608745
-0.0068263
-0.0077372
-0.00905839
-0.0104629
-0.013042
-0.0154782
-0.0196103
-0.0162894
-0.00499493
0.0484303
-0.0161434
-0.00341118
-0.0025735
-0.00233613
-0.00238651
-0.00262149
-0.00309899
-0.00362023
-0.00426428
-0.00507739
-0.00594777
-0.00701676
-0.00840686
-0.00963856
-0.011132
-0.011047
-0.00817453
0.010276
0.0523246
0.145664
)
;

boundaryField
{
    movingWall
    {
        type            zeroGradient;
    }
    fixedWalls
    {
        type            zeroGradient;
    }
    frontAndBack
    {
        type            empty;
    }
}


// ************************************************************************* //
