/*--------------------------------*- C++ -*----------------------------------*\
  =========                 |
  \\      /  F ield         | OpenFOAM: The Open Source CFD Toolbox
   \\    /   O peration     | Website:  https://openfoam.org
    \\  /    A nd           | Version:  9
     \\/     M anipulation  |
\*---------------------------------------------------------------------------*/
FoamFile
{
    format      ascii;
    class       surfaceScalarField;
    location    "7";
    object      phi;
}
// * * * * * * * * * * * * * * * * * * * * * * * * * * * * * * * * * * * * * //

dimensions      [0 3 -1 0 0 0 0];

internalField   nonuniform List<scalar> 
760
(
-6.28263e-06
6.28275e-06
-1.71958e-05
1.09132e-05
-2.90337e-05
1.18379e-05
-4.09148e-05
1.18811e-05
-5.26212e-05
1.17064e-05
-6.4023e-05
1.14018e-05
-7.49478e-05
1.09249e-05
-8.5154e-05
1.02062e-05
-9.43163e-05
9.16225e-06
-0.000102014
7.69804e-06
-0.000107726
5.71129e-06
-0.000110832
3.10592e-06
-0.000110635
-1.96404e-07
-0.000106407
-4.22778e-06
-9.75106e-05
-8.89677e-06
-8.35391e-05
-1.39715e-05
-6.45413e-05
-1.89978e-05
-4.14519e-05
-2.30894e-05
-1.69929e-05
-2.4459e-05
-1.69929e-05
-1.1353e-05
1.76357e-05
-2.91143e-05
2.86745e-05
-4.80566e-05
3.07802e-05
-6.68423e-05
3.06668e-05
-8.50653e-05
2.99293e-05
-0.000102453
2.87891e-05
-0.000118701
2.71731e-05
-0.000133439
2.49442e-05
-0.000146208
2.19316e-05
-0.000156447
1.79368e-05
-0.000163459
1.27238e-05
-0.000166511
6.15724e-06
-0.000164776
-1.93156e-06
-0.000157289
-1.17147e-05
-0.000143295
-2.28903e-05
-0.000122315
-3.49518e-05
-9.44438e-05
-4.68689e-05
-6.09433e-05
-5.65899e-05
-2.556e-05
-5.98423e-05
-4.25529e-05
-1.27033e-05
3.03391e-05
-3.24225e-05
4.83937e-05
-5.33749e-05
5.17326e-05
-7.40972e-05
5.13891e-05
-9.41605e-05
4.99926e-05
-0.000113283
4.7912e-05
-0.000131159
4.50486e-05
-0.000147417
4.12024e-05
-0.000161601
3.61156e-05
-0.000173146
2.94814e-05
-0.000181384
2.09621e-05
-0.000185461
1.02344e-05
-0.000184393
-3.00023e-06
-0.000177098
-1.90096e-05
-0.000162548
-3.74401e-05
-0.000139938
-5.75618e-05
-0.000109058
-7.77487e-05
-7.10273e-05
-9.46206e-05
-3.01243e-05
-0.000100745
-7.26772e-05
-1.30902e-05
4.34292e-05
-3.35496e-05
6.88531e-05
-5.5307e-05
7.349e-05
-7.68705e-05
7.29526e-05
-9.78369e-05
7.0959e-05
-0.000117962
6.80376e-05
-0.000136984
6.40703e-05
-0.00015458
5.87985e-05
-0.00017034
5.18752e-05
-0.000183726
4.28679e-05
-0.00019404
3.12762e-05
-0.000200389
1.65831e-05
-0.000201698
-1.69155e-06
-0.00019648
-2.42271e-05
-0.000183231
-5.06897e-05
-0.000160466
-8.03261e-05
-0.000127243
-0.000110972
-8.42893e-05
-0.000137575
-3.65052e-05
-0.000148529
-0.000109182
-1.33245e-05
5.67538e-05
-3.43844e-05
8.9913e-05
-5.68454e-05
9.5951e-05
-7.91933e-05
9.53005e-05
-0.000101068
9.28334e-05
-0.000122285
8.92547e-05
-0.000142653
8.44389e-05
-0.000161932
7.8077e-05
-0.000179791
6.97338e-05
-0.000195761
5.88378e-05
-0.000209166
4.46815e-05
-0.000219039
2.64562e-05
-0.000224132
3.40108e-06
-0.000222589
-2.57695e-05
-0.000212178
-6.1101e-05
-0.000190378
-0.000102126
-0.000154941
-0.000146409
-0.000105393
-0.000187123
-4.73699e-05
-0.000206552
-0.000156552
-1.35761e-05
7.03299e-05
-3.53167e-05
0.000111654
-5.85847e-05
0.000119219
-8.1832e-05
0.000118548
-0.00010475
0.000115751
-0.000127232
0.000111737
-0.000149186
0.000106393
-0.000170487
9.9378e-05
-0.000190934
9.01814e-05
-0.00021019
7.80931e-05
-0.000227683
6.21744e-05
-0.000242478
4.12513e-05
-0.000253067
1.39903e-05
-0.00025742
-2.14168e-05
-0.000252249
-6.62713e-05
-0.000233547
-0.000120828
-0.000196903
-0.000183053
-0.000139376
-0.00024465
-6.66348e-05
-0.000279294
-0.000223187
-1.38573e-05
8.41871e-05
-3.63769e-05
0.000134173
-6.05548e-05
0.000143397
-8.47932e-05
0.000142786
-0.000108841
0.000139799
-0.000132688
0.000135584
-0.000156368
0.000130073
-0.000179918
0.000122928
-0.000203332
0.000113596
-0.000226491
0.000101252
-0.000249046
8.47295e-05
-0.000270237
6.24423e-05
-0.000288601
3.23535e-05
-0.000301915
-8.10258e-06
-0.000305877
-6.23086e-05
-0.000294545
-0.00013216
-0.000260168
-0.00021743
-0.000195526
-0.000309291
-0.000103489
-0.000371331
-0.000326677
-1.41567e-05
9.83438e-05
-3.75387e-05
0.000157555
-6.26937e-05
0.000168552
-8.79539e-05
0.000168047
-0.000113128
0.000164973
-0.000138314
0.000160771
-0.000163704
0.000155463
-0.000189542
0.000148766
-0.000216096
0.00014015
-0.000243589
0.000128744
-0.000272077
0.000113218
-0.000301239
9.16049e-05
-0.000330005
6.11187e-05
-0.000356181
1.80736e-05
-0.000375311
-4.31784e-05
-0.000379243
-0.000128228
-0.000355901
-0.000240772
-0.000291526
-0.000373666
-0.000176474
-0.000486383
-0.000503151
-1.44729e-05
0.000112817
-3.8794e-05
0.000181876
-6.49576e-05
0.000194715
-9.1202e-05
0.000194291
-0.000117389
0.00019116
-0.000143735
0.000187116
-0.000170603
0.000182331
-0.000198491
0.000176654
-0.000228012
0.000169671
-0.000259862
0.000160594
-0.000294731
0.000148087
-0.00033312
0.000129993
-0.000374937
0.000102936
-0.00041867
6.18067e-05
-0.000461833
-1.52203e-08
-0.000494643
-9.54186e-05
-0.000501582
-0.000233833
-0.000459007
-0.000416241
-0.000325183
-0.000620208
-0.000828333
-1.48299e-05
0.000127647
-4.01855e-05
0.000207232
-6.73662e-05
0.000221896
-9.44918e-05
0.000221416
-0.000121464
0.000218133
-0.000148613
0.000214264
-0.000176482
0.0002102
-0.000205835
0.000206008
-0.000237694
0.000201529
-0.00027336
0.00019626
-0.000314416
0.000189144
-0.000362637
0.000178214
-0.000419732
0.000160031
-0.000486762
0.000128836
-0.000562477
7.56999e-05
-0.000644962
-1.29335e-05
-0.000717419
-0.000161376
-0.000736694
-0.000396965
-0.000579401
-0.000777501
-0.00140773
-1.52844e-05
0.000142931
-4.1833e-05
0.000233781
-7.00413e-05
0.000250104
-9.79014e-05
0.000249277
-0.000125316
0.000245547
-0.000152724
0.000241672
-0.000180831
0.000238308
-0.000210633
0.00023581
-0.000243521
0.000234417
-0.000281395
0.000234135
-0.000326826
0.000234574
-0.000383241
0.00023463
-0.00045512
0.00023191
-0.000548128
0.000221844
-0.000669113
0.000196685
-0.000823403
0.000141356
-0.000998408
1.36297e-05
-0.0010801
-0.000315269
-0.00080912
-0.00104849
-0.00221685
-1.60224e-05
0.000158953
-4.40825e-05
0.000261841
-7.33222e-05
0.000279344
-0.000101656
0.00027761
-0.000129037
0.000272928
-0.000156009
0.000268645
-0.000183374
0.000265673
-0.000212292
0.000264727
-0.00024444
0.000266564
-0.000282235
0.000271931
-0.000329176
0.000281515
-0.000390387
0.000295841
-0.000473413
0.000314935
-0.000589287
0.000337718
-0.000753454
0.000360852
-0.000976429
0.00036433
-0.0012157
0.000252897
-0.0012584
-0.000272564
-0.000766366
-0.00154052
-0.00298322
-1.64571e-05
0.00017541
-4.65278e-05
0.000291911
-7.70459e-05
0.000309862
-0.000106526
0.00030709
-0.00013373
0.000300132
-0.000159484
0.000294399
-0.000184648
0.000290837
-0.000210537
0.000290616
-0.000238913
0.000294941
-0.000272281
0.000305299
-0.000314429
0.000323663
-0.000371401
0.000352813
-0.000453074
0.000396609
-0.000574687
0.000459331
-0.000755629
0.000541794
-0.00099422
0.000602921
-0.0012144
0.000473078
-0.00115507
-0.000331896
-0.000619972
-0.00207562
-0.00360319
-2.13642e-05
0.000196775
-5.42318e-05
0.000324779
-8.52827e-05
0.000340913
-0.000112357
0.000334164
-0.000137005
0.000324781
-0.000160169
0.000317562
-0.000182582
0.00031325
-0.000204999
0.000313032
-0.000228637
0.000318578
-0.000255489
0.000332151
-0.000288933
0.000357107
-0.000334425
0.000398304
-0.00040117
0.000463354
-0.00049995
0.000558111
-0.000646474
0.000688318
-0.000814189
0.000770637
-0.000947072
0.000605962
-0.000857623
-0.000421345
-0.000541997
-0.00239124
-0.00414519
-1.3652e-05
0.000210427
-5.16894e-05
0.000362816
-8.77268e-05
0.000376951
-0.000122112
0.000368549
-0.000148686
0.000351355
-0.000170421
0.000339297
-0.000187707
0.000330536
-0.000202241
0.000327567
-0.000215044
0.000331381
-0.000227273
0.00034438
-0.000240239
0.000370074
-0.000256512
0.000414577
-0.000281885
0.000488727
-0.000319884
0.00059611
-0.000384431
0.000752865
-0.000449593
0.000835799
-0.000503434
0.000659803
-0.000473114
-0.000451665
-0.000341905
-0.00252245
-0.00448709
-5.54716e-05
0.000265898
-9.017e-05
0.000397515
-0.000116726
0.000403506
-0.000134392
0.000386216
-0.000150079
0.000367041
-0.000164836
0.000354054
-0.00017805
0.000343751
-0.00018866
0.000338177
-0.000195885
0.000338606
-0.000198486
0.000346982
-0.000195688
0.000367276
-0.00018582
0.000404709
-0.000169357
0.000472264
-0.00013957
0.000566322
-9.54177e-05
0.000708713
-5.08352e-05
0.000791217
3.1943e-05
0.000577024
-4.12884e-05
-0.000378434
-8.49004e-05
-0.00247884
-0.00457199
1.08618e-05
0.000255036
-6.80228e-05
0.000476399
-0.00012623
0.000461713
-0.000165457
0.000425444
-0.000186797
0.000388381
-0.000199381
0.000366638
-0.000203537
0.000347906
-0.000202475
0.000337115
-0.000194202
0.000330332
-0.000177503
0.000330284
-0.000147261
0.000337033
-9.76325e-05
0.00035508
-2.11643e-05
0.000395795
9.07037e-05
0.000454454
0.000249627
0.00054979
0.000439632
0.000601211
0.000564687
0.00045197
0.000361836
-0.000175583
0.000112537
-0.00222954
-0.00445946
-4.83691e-05
0.000303406
-3.09985e-05
0.000459029
-5.58362e-05
0.000486551
-0.000111203
0.000480811
-0.000147846
0.000425024
-0.000176876
0.000395668
-0.000192633
0.000363663
-0.00019521
0.000339692
-0.000185993
0.000321115
-0.000161497
0.000305787
-0.000120027
0.000295564
-5.60469e-05
0.0002911
3.84758e-05
0.000301273
0.000171791
0.000321139
0.000355919
0.000365662
0.000553751
0.000403378
0.000781557
0.000224163
0.0007782
-0.000172225
0.000513001
-0.00196434
-0.00394646
-0.000638564
0.000941969
-0.000685075
0.000505541
-0.000654652
0.000456127
-0.000551547
0.000377707
-0.000442814
0.000316291
-0.000324148
0.000277001
-0.000206045
0.00024556
-8.86291e-05
0.000222276
2.7898e-05
0.000204588
0.000143104
0.000190581
0.000261865
0.000176803
0.000381145
0.00017182
0.000519985
0.000162432
0.000679486
0.000161638
0.000899489
0.000145659
0.00117155
0.000131315
0.00143678
-4.10668e-05
0.0016206
-0.00035604
0.0011619
-0.00150565
-0.00278455
0.000941969
0.00144751
0.00190364
0.00228134
0.00259763
0.00287464
0.0031202
0.00334247
0.00354706
0.00373764
0.00391444
0.00408626
0.0042487
0.00441033
0.00455599
0.00468731
0.00464624
0.0042902
0.00278455
)
;

boundaryField
{
    movingWall
    {
        type            calculated;
        value           uniform 0;
    }
    fixedWalls
    {
        type            calculated;
        value           uniform 0;
    }
    frontAndBack
    {
        type            empty;
        value           nonuniform List<scalar> 0();
    }
}


// ************************************************************************* //
