/*--------------------------------*- C++ -*----------------------------------*\
  =========                 |
  \\      /  F ield         | OpenFOAM: The Open Source CFD Toolbox
   \\    /   O peration     | Website:  https://openfoam.org
    \\  /    A nd           | Version:  9
     \\/     M anipulation  |
\*---------------------------------------------------------------------------*/
FoamFile
{
    format      ascii;
    class       volVectorField;
    location    "7";
    object      U;
}
// * * * * * * * * * * * * * * * * * * * * * * * * * * * * * * * * * * * * * //

dimensions      [0 1 -1 0 0 0 0];

internalField   nonuniform List<vector> 
400
(
(-0.000209173 0.000201968 0)
(-0.00108244 0.000395383 0)
(-0.00232574 0.000436882 0)
(-0.00350175 0.000444337 0)
(-0.00468681 0.000445457 0)
(-0.00584623 0.00044365 0)
(-0.00696645 0.000436443 0)
(-0.00802751 0.000420173 0)
(-0.00900138 0.000390535 0)
(-0.00985117 0.000342651 0)
(-0.0105298 0.000271469 0)
(-0.0109804 0.000173224 0)
(-0.0111367 4.28666e-05 0)
(-0.010926 -0.000123743 0)
(-0.0102781 -0.000322032 0)
(-0.00913907 -0.000541841 0)
(-0.00747565 -0.000762464 0)
(-0.00538385 -0.000944061 0)
(-0.0028085 -0.00100896 0)
(-0.000678506 -0.000685748 0)
(-0.0004213 0.00109206 0)
(-0.00189682 0.00183712 0)
(-0.00388235 0.00198378 0)
(-0.00575761 0.00198501 0)
(-0.00761796 0.00194789 0)
(-0.00940582 0.00188688 0)
(-0.0110945 0.00179591 0)
(-0.0126514 0.00166455 0)
(-0.0140352 0.0014802 0)
(-0.0151952 0.00122851 0)
(-0.0160686 0.000893897 0)
(-0.0165842 0.000460068 0)
(-0.0166636 -8.38642e-05 0)
(-0.016215 -0.000739445 0)
(-0.0151503 -0.0014924 0)
(-0.0134052 -0.00230592 0)
(-0.0109421 -0.00310856 0)
(-0.0078875 -0.00376069 0)
(-0.00417436 -0.00397684 0)
(-0.00104855 -0.00279362 0)
(-0.000474079 0.00240284 0)
(-0.00211845 0.00385384 0)
(-0.00431765 0.00412553 0)
(-0.00638872 0.00410195 0)
(-0.00843917 0.00399342 0)
(-0.0104065 0.00382947 0)
(-0.0122639 0.0036016 0)
(-0.0139786 0.00329307 0)
(-0.0155094 0.00288266 0)
(-0.0168057 0.00234566 0)
(-0.0178066 0.00165495 0)
(-0.0184361 0.000782783 0)
(-0.0186019 -0.000290043 0)
(-0.0181994 -0.00157033 0)
(-0.0171212 -0.00303603 0)
(-0.0152727 -0.00462278 0)
(-0.0125798 -0.00619852 0)
(-0.00915392 -0.00749272 0)
(-0.00490079 -0.00793663 0)
(-0.00124959 -0.00568471 0)
(-0.000484357 0.00367951 0)
(-0.00218715 0.0058458 0)
(-0.00447194 0.0062429 0)
(-0.00662335 0.00619823 0)
(-0.00876142 0.00602776 0)
(-0.0108237 0.00577593 0)
(-0.0127882 0.00543166 0)
(-0.014627 0.00497176 0)
(-0.0163035 0.0043658 0)
(-0.0177706 0.00357681 0)
(-0.0189676 0.00256332 0)
(-0.019816 0.00128429 0)
(-0.0202182 -0.000296694 0)
(-0.0200453 -0.0022038 0)
(-0.0191461 -0.00442111 0)
(-0.0173685 -0.00686951 0)
(-0.0145592 -0.00936218 0)
(-0.0107787 -0.0114836 0)
(-0.00589593 -0.0122959 0)
(-0.00154502 -0.00894361 0)
(-0.000486744 0.0049988 0)
(-0.00223288 0.00791848 0)
(-0.00459104 0.00845008 0)
(-0.00681456 0.0083901 0)
(-0.00903739 0.00816608 0)
(-0.0111987 0.00783898 0)
(-0.0132844 0.00739613 0)
(-0.0152741 0.00680864 0)
(-0.0171395 0.00603696 0)
(-0.0188411 0.00503061 0)
(-0.0203223 0.00372914 0)
(-0.0215029 0.00206614 0)
(-0.0222749 -2.34819e-05 0)
(-0.022484 -0.00258525 0)
(-0.0219255 -0.00563972 0)
(-0.0203611 -0.00911403 0)
(-0.0175125 -0.0127786 0)
(-0.0133058 -0.0160606 0)
(-0.00754445 -0.0175057 0)
(-0.0020761 -0.0130297 0)
(-0.000488341 0.00634242 0)
(-0.00228288 0.0100555 0)
(-0.00472511 0.0107332 0)
(-0.00703119 0.0106665 0)
(-0.00935112 0.0104022 0)
(-0.0116264 0.01002 0)
(-0.0138532 0.00950743 0)
(-0.016022 0.0088312 0)
(-0.018117 0.00794328 0)
(-0.0201122 0.00677893 0)
(-0.021963 0.00525529 0)
(-0.0235956 0.00327262 0)
(-0.0248921 0.000721193 0)
(-0.0256807 -0.00249846 0)
(-0.0256991 -0.00647327 0)
(-0.0245851 -0.0111818 0)
(-0.0218803 -0.0163866 0)
(-0.0172391 -0.0213545 0)
(-0.0103494 -0.0239274 0)
(-0.00307553 -0.0184996 0)
(-0.000489435 0.00771191 0)
(-0.00233941 0.0122644 0)
(-0.00487774 0.0131013 0)
(-0.00727545 0.0130369 0)
(-0.00970123 0.0127467 0)
(-0.0120993 0.0123328 0)
(-0.0144784 0.0117851 0)
(-0.0168434 0.0110686 0)
(-0.0191967 0.0101288 0)
(-0.0215335 0.00888746 0)
(-0.0238322 0.00723749 0)
(-0.0260397 0.00503897 0)
(-0.0280478 0.00212057 0)
(-0.0296813 -0.00171036 0)
(-0.030626 -0.00663922 0)
(-0.0303809 -0.0127872 0)
(-0.0282452 -0.020004 0)
(-0.0234031 -0.027437 0)
(-0.0153456 -0.0320003 0)
(-0.00508937 -0.0265021 0)
(-0.000489319 0.00911041 0)
(-0.00240086 0.0145554 0)
(-0.00504515 0.015564 0)
(-0.00753856 0.0155086 0)
(-0.0100714 0.0152051 0)
(-0.0125902 0.0147821 0)
(-0.0151186 0.0142363 0)
(-0.0176794 0.0135352 0)
(-0.0202992 0.0126226 0)
(-0.0230044 0.0114116 0)
(-0.0258122 0.00977404 0)
(-0.0287131 0.0075289 0)
(-0.0316421 0.00442986 0)
(-0.0344443 0.000159875 0)
(-0.0368059 -0.00562854 0)
(-0.0381287 -0.0133459 0)
(-0.0374292 -0.0230947 0)
(-0.0331912 -0.0340251 0)
(-0.0248199 -0.0421405 0)
(-0.00962708 -0.0392941 0)
(-0.000487834 0.0105395 0)
(-0.00246717 0.0169364 0)
(-0.00522557 0.0181265 0)
(-0.00781335 0.0180815 0)
(-0.0104457 0.0177719 0)
(-0.01307 0.0173582 0)
(-0.0157261 0.016849 0)
(-0.0184578 0.0162211 0)
(-0.021321 0.0154249 0)
(-0.0243828 0.0143739 0)
(-0.0277157 0.0129285 0)
(-0.0313848 0.0108738 0)
(-0.0354189 0.00788875 0)
(-0.0397499 0.00351269 0)
(-0.0441959 -0.00286307 0)
(-0.0481912 -0.011942 0)
(-0.0505346 -0.0244757 0)
(-0.0490502 -0.0399084 0)
(-0.0431267 -0.0543201 0)
(-0.0199687 -0.0611956 0)
(-0.000485963 0.0120017 0)
(-0.00254223 0.0194162 0)
(-0.00542335 0.0207913 0)
(-0.0080993 0.0207497 0)
(-0.0108148 0.0204314 0)
(-0.0135151 0.0200357 0)
(-0.0162566 0.0195897 0)
(-0.0191045 0.0190876 0)
(-0.0221476 0.0184983 0)
(-0.0255025 0.0177535 0)
(-0.0293149 0.0167267 0)
(-0.0337577 0.0152019 0)
(-0.0390144 0.012822 0)
(-0.0452338 0.00901286 0)
(-0.0524309 0.00289725 0)
(-0.0605242 -0.00669532 0)
(-0.0686128 -0.0213716 0)
(-0.0741032 -0.0418514 0)
(-0.0746471 -0.0673921 0)
(-0.0374233 -0.101617 0)
(-0.000486011 0.013502 0)
(-0.00263555 0.0220007 0)
(-0.00565231 0.0235486 0)
(-0.00840724 0.0234875 0)
(-0.0111819 0.0231444 0)
(-0.0139139 0.0227627 0)
(-0.0166754 0.0223924 0)
(-0.0195503 0.022053 0)
(-0.0226561 0.0217444 0)
(-0.0261552 0.0214358 0)
(-0.0302678 0.0210454 0)
(-0.0352913 0.0204032 0)
(-0.0416215 0.0191868 0)
(-0.0497571 0.0168206 0)
(-0.0603255 0.0123687 0)
(-0.0742388 0.00431424 0)
(-0.091411 -0.00999874 0)
(-0.107256 -0.035597 0)
(-0.111922 -0.084959 0)
(-0.0438959 -0.174894 0)
(-0.000495792 0.0150749 0)
(-0.00277678 0.0247956 0)
(-0.00595058 0.0265148 0)
(-0.00876615 0.0264334 0)
(-0.0115634 0.0260096 0)
(-0.0142692 0.0255791 0)
(-0.0169674 0.0252348 0)
(-0.0197541 0.0250428 0)
(-0.0227673 0.0250527 0)
(-0.0262058 0.0252978 0)
(-0.030356 0.0257868 0)
(-0.0356355 0.0264783 0)
(-0.0426567 0.027222 0)
(-0.0522922 0.0276712 0)
(-0.0658911 0.0271941 0)
(-0.0856503 0.0241953 0)
(-0.111103 0.0127971 0)
(-0.13099 -0.0266398 0)
(-0.125493 -0.12573 0)
(-0.0210283 -0.268155 0)
(-0.000472077 0.0166319 0)
(-0.00289993 0.027348 0)
(-0.0062918 0.0290959 0)
(-0.00919749 0.0287659 0)
(-0.0120615 0.0282537 0)
(-0.014692 0.0278489 0)
(-0.0172141 0.0276344 0)
(-0.0197343 0.0276666 0)
(-0.0224016 0.0280267 0)
(-0.0254185 0.0288199 0)
(-0.0290798 0.030177 0)
(-0.0338467 0.0322471 0)
(-0.040458 0.0351845 0)
(-0.0500419 0.0390954 0)
(-0.0645241 0.0439397 0)
(-0.0867294 0.047265 0)
(-0.115119 0.0361765 0)
(-0.128531 -0.0298831 0)
(-0.106511 -0.186 0)
(-0.0113316 -0.33519 0)
(-0.000741535 0.0185824 0)
(-0.00360906 0.0314509 0)
(-0.00712431 0.0333174 0)
(-0.00994302 0.0332153 0)
(-0.0125141 0.0323151 0)
(-0.0148953 0.031531 0)
(-0.0171532 0.0309499 0)
(-0.0193653 0.0307709 0)
(-0.0216198 0.0311611 0)
(-0.0240664 0.0323295 0)
(-0.0269486 0.0345523 0)
(-0.0306707 0.038242 0)
(-0.0359236 0.0439933 0)
(-0.0436264 0.0523955 0)
(-0.0553117 0.0637543 0)
(-0.0723315 0.0716319 0)
(-0.0946757 0.0562604 0)
(-0.0977294 -0.0388415 0)
(-0.0776828 -0.23305 0)
(-0.0241474 -0.392801 0)
(-2.17935e-05 0.020953 0)
(-0.00282812 0.032878 0)
(-0.00728762 0.0341862 0)
(-0.0104732 0.0326917 0)
(-0.0137529 0.031729 0)
(-0.0160385 0.0311029 0)
(-0.0179615 0.0309073 0)
(-0.0195157 0.0311361 0)
(-0.020843 0.0319358 0)
(-0.0220398 0.033518 0)
(-0.0232067 0.0362593 0)
(-0.0244959 0.0406866 0)
(-0.0263874 0.0477273 0)
(-0.029033 0.0579132 0)
(-0.034348 0.0719918 0)
(-0.0400887 0.080169 0)
(-0.0540634 0.061994 0)
(-0.0477859 -0.0483792 0)
(-0.0521339 -0.254394 0)
(-0.00954888 -0.446719 0)
(-0.00313922 0.0203824 0)
(-0.00778879 0.0405288 0)
(-0.0103527 0.0421242 0)
(-0.0127643 0.0424077 0)
(-0.0142135 0.039874 0)
(-0.0158156 0.0380376 0)
(-0.0171911 0.036335 0)
(-0.0183844 0.0353605 0)
(-0.0192654 0.035166 0)
(-0.0197455 0.0360478 0)
(-0.0197318 0.0383257 0)
(-0.0189958 0.0427163 0)
(-0.0178836 0.0504801 0)
(-0.0150499 0.0616855 0)
(-0.0132261 0.0786293 0)
(-0.00427436 0.0876174 0)
(-0.00764235 0.0684062 0)
(0.0147093 -0.040128 0)
(-0.0250278 -0.254909 0)
(0.0118992 -0.459299 0)
(0.00335521 0.0346018 0)
(-0.00142713 0.0379905 0)
(-0.011632 0.0374473 0)
(-0.0141951 0.0328305 0)
(-0.0183522 0.0316266 0)
(-0.0193007 0.0309335 0)
(-0.0203057 0.0307884 0)
(-0.0203942 0.0308519 0)
(-0.0199462 0.0313407 0)
(-0.0187642 0.0323128 0)
(-0.016548 0.0342494 0)
(-0.0124911 0.0374947 0)
(-0.00726897 0.0432253 0)
(0.00343244 0.0512396 0)
(0.0142701 0.0622682 0)
(0.0373234 0.068816 0)
(0.0469802 0.0474276 0)
(0.0647169 -0.0373238 0)
(0.00177028 -0.23937 0)
(0.025711 -0.456124 0)
(-0.00325342 0.0133892 0)
(-0.00569436 0.0589171 0)
(-0.000957467 0.0564238 0)
(-0.00973253 0.055135 0)
(-0.0129258 0.0486498 0)
(-0.0167393 0.0448743 0)
(-0.0188112 0.0409467 0)
(-0.0197022 0.0384516 0)
(-0.0193773 0.0363402 0)
(-0.0176577 0.035141 0)
(-0.0145646 0.0343901 0)
(-0.00913075 0.0346534 0)
(-0.0022414 0.0372574 0)
(0.0102061 0.041077 0)
(0.0237425 0.0504331 0)
(0.0485782 0.0553307 0)
(0.0591262 0.0477882 0)
(0.0943858 0.0052962 0)
(0.051544 -0.197435 0)
(0.0634351 -0.433316 0)
(-0.0765289 0.05313 0)
(-0.0558335 0.0300187 0)
(-0.0771378 0.0381047 0)
(-0.0563479 0.0369392 0)
(-0.052037 0.0328522 0)
(-0.0375764 0.030967 0)
(-0.0266122 0.0289994 0)
(-0.0148486 0.0270808 0)
(-0.00283097 0.0258325 0)
(0.00846332 0.0242939 0)
(0.0200123 0.0232588 0)
(0.0328537 0.0223911 0)
(0.0427736 0.0219042 0)
(0.06274 0.0221087 0)
(0.0713354 0.0203638 0)
(0.111311 0.0217895 0)
(0.115873 -0.00738509 0)
(0.169044 -0.0444482 0)
(0.138696 -0.21579 0)
(0.117022 -0.386575 0)
(0.0848786 0.123234 0)
(0.11403 0.0743686 0)
(0.166778 0.056263 0)
(0.212824 0.0422636 0)
(0.242733 0.0334534 0)
(0.276996 0.0272091 0)
(0.296858 0.0224349 0)
(0.328042 0.0193869 0)
(0.339592 0.0168234 0)
(0.370612 0.015308 0)
(0.37668 0.0134041 0)
(0.406682 0.0130752 0)
(0.410048 0.0115596 0)
(0.440286 0.0112363 0)
(0.436737 0.010371 0)
(0.470495 0.00679156 0)
(0.450631 0.00130562 0)
(0.465895 -0.0175939 0)
(0.368779 -0.0581065 0)
(0.232283 -0.124025 0)
)
;

boundaryField
{
    movingWall
    {
        type            fixedValue;
        value           uniform (1 0 0);
    }
    fixedWalls
    {
        type            noSlip;
    }
    frontAndBack
    {
        type            empty;
    }
}


// ************************************************************************* //
