/*--------------------------------*- C++ -*----------------------------------*\
  =========                 |
  \\      /  F ield         | OpenFOAM: The Open Source CFD Toolbox
   \\    /   O peration     | Website:  https://openfoam.org
    \\  /    A nd           | Version:  9
     \\/     M anipulation  |
\*---------------------------------------------------------------------------*/
FoamFile
{
    format      ascii;
    class       volScalarField;
    location    "3";
    object      p;
}
// * * * * * * * * * * * * * * * * * * * * * * * * * * * * * * * * * * * * * //

dimensions      [0 2 -2 0 0 0 0];

internalField   nonuniform List<scalar> 
8000
(
2.25115e-08
-2.72349e-07
3.31648e-05
8.93754e-05
0.00016944
0.00027243
0.000396978
0.000541215
0.000702648
0.000878085
0.00106361
0.00125455
0.00144544
0.00163022
0.00180239
0.00195526
0.00208236
0.00217765
0.00223931
0.00225251
-6.52294e-06
-5.43457e-06
2.82797e-05
8.40405e-05
0.00016347
0.000265816
0.000389844
0.000533797
0.000695286
0.000871213
0.00105764
0.00124998
0.00144282
0.00162996
0.00180477
0.00196036
0.00209003
0.00218745
0.00225084
0.00226427
-4.52828e-05
-4.44498e-05
-1.02535e-05
4.61521e-05
0.00012668
0.00023075
0.000357281
0.00050466
0.000670616
0.000852125
0.00104542
0.0012458
0.00144758
0.00164438
0.00182915
0.00199448
0.00213296
0.00223747
0.00230578
0.00232029
-0.000109257
-0.000109084
-7.4337e-05
-1.68649e-05
6.55611e-05
0.000172593
0.000303378
0.000456523
0.000629943
0.00082076
0.0010252
0.00123855
0.00145505
0.00166784
0.00186916
0.00205074
0.00220402
0.00232054
0.00239725
0.00241415
-0.00020132
-0.000202167
-0.000166773
-0.000107845
-2.27445e-05
8.84875e-05
0.000225308
0.000386623
0.000570612
0.000774604
0.000994929
0.00122684
0.00146439
0.00170021
0.00192568
0.00213119
0.00230656
0.0024412
0.00253071
0.00255152
-0.000323088
-0.000325381
-0.000289361
-0.0002288
-0.000140511
-2.41236e-05
0.000120235
0.000291876
0.000489347
0.000710275
0.000951194
0.00120743
0.00147288
0.00173962
0.00199798
0.00223665
0.00244314
0.0026038
0.00271195
0.00273887
-0.000476422
-0.000480734
-0.000444319
-0.000382263
-0.000290642
-0.000168541
-1.55346e-05
0.000168226
0.000381788
0.000623217
0.000889397
0.00117583
0.00147648
0.00178294
0.00208442
0.00236756
0.00261678
0.0028141
0.00294903
0.00298543
-0.000663524
-0.000670646
-0.000634374
-0.000571386
-0.000476778
-0.000348921
-0.000186671
1.0514e-05
0.000242331
0.000507452
0.000803309
0.00112582
0.00146933
0.00182519
0.00218172
0.00252336
0.00283053
0.0030793
0.00325283
0.00330447
-0.000886898
-0.000897924
-0.00086275
-0.000799952
-0.000703334
-0.000570332
-0.000398889
-0.000187608
6.40118e-05
0.000355429
0.000684862
0.00104897
0.00144303
0.0018587
0.00228393
0.00270129
0.00308659
0.00340795
0.00363764
0.00371482
-0.00114934
-0.00116577
-0.00113321
-0.00107245
-0.000975585
-0.000838842
-0.000659028
-0.00043374
-0.000161558
0.000157911
0.000523922
0.000934276
0.00138598
0.00187187
0.00238077
0.00289446
0.00338441
0.00380919
0.00412169
0.00424374
-0.00145391
-0.00147783
-0.00145012
-0.00139417
-0.0012998
-0.00116163
-0.000975103
-0.000736727
-0.000444139
-9.59682e-05
0.000308243
0.000767661
0.00128252
0.00184777
0.00245536
0.0030888
0.00371681
0.00429059
0.00472709
0.00493237
-0.00180418
-0.00183841
-0.00181867
-0.00177147
-0.00168345
-0.00154712
-0.00135634
-0.00110655
-0.000794602
-0.000418314
2.42112e-05
0.000535223
0.00111309
0.00176255
0.002481
0.00325802
0.00406379
0.00485305
0.00547784
0.00584351
-0.00220346
-0.00225196
-0.00224476
-0.00221196
-0.00213555
-0.00200524
-0.00181321
-0.00155405
-0.00122442
-0.000822041
-0.000344621
0.00021092
0.00084902
0.00158238
0.00241705
0.0033567
0.00438207
0.00547713
0.00637975
0.00708832
-0.00266465
-0.00272863
-0.00273766
-0.00272591
-0.00266743
-0.00254777
-0.00235734
-0.00209043
-0.0017444
-0.00131797
-0.000808652
-0.000208604
0.000495853
0.00129611
0.00222807
0.00332157
0.00458749
0.00609346
0.00739538
0.00881864
-0.00315578
-0.00327205
-0.00330275
-0.00332848
-0.00329552
-0.00318956
-0.00300143
-0.00272627
-0.00236343
-0.00191521
-0.0013865
-0.000781019
-9.7318e-05
0.000707562
0.00168848
0.00290758
0.00439488
0.00653015
0.00835415
0.0112424
-0.00383948
-0.0038572
-0.00393825
-0.00398399
-0.00399355
-0.0039212
-0.00374791
-0.00346661
-0.00308235
-0.00260347
-0.00203672
-0.00138174
-0.000629497
0.000250278
0.00129842
0.00258485
0.00419374
0.00682776
0.00913856
0.0142286
-0.00437437
-0.00495573
-0.00488597
-0.00510291
-0.00508766
-0.00496405
-0.00472368
-0.00437796
-0.00394073
-0.00342524
-0.00285441
-0.00224251
-0.00160707
-0.000950941
-0.000339591
0.00048271
0.00144218
0.00503393
0.00701125
0.0169885
-0.00607201
-0.00489549
-0.00527816
-0.00532395
-0.00550511
-0.00553015
-0.00541238
-0.00513131
-0.0047066
-0.00415946
-0.00354274
-0.00287232
-0.0022003
-0.0015049
-0.000897986
0.000136924
0.000233392
0.00364166
0.00522275
0.0202282
-0.00558211
-0.0081318
-0.00753137
-0.00823338
-0.00802004
-0.0077252
-0.00724026
-0.00664618
-0.00599352
-0.00524316
-0.00454923
-0.003874
-0.00332294
-0.00294572
-0.00309857
-0.00315574
-0.005676
-0.00249427
-0.00288655
0.0241222
-0.0170794
-0.00583303
-0.00631959
-0.00672399
-0.0069205
-0.0069745
-0.00685596
-0.00651335
-0.00600244
-0.00532892
-0.00467848
-0.00389691
-0.00340546
-0.00269482
-0.00269429
-0.00181432
-0.0010317
0.0075022
0.0246896
0.074596
-1.44143e-06
-2.28417e-06
3.14862e-05
8.76693e-05
0.00016785
0.000271042
0.000395868
0.000540463
0.000702318
0.000878259
0.00106435
0.00125587
0.00144741
0.00163287
0.00180569
0.00195914
0.00208665
0.002182
0.00224355
0.00225387
-3.40786e-06
-4.41679e-06
2.92813e-05
8.47807e-05
0.000164062
0.000266304
0.000390263
0.000534187
0.000695689
0.000871669
0.00105812
0.00125079
0.00144391
0.00163136
0.00180649
0.00196239
0.00209223
0.00218952
0.00225274
0.00226313
-4.10272e-05
-4.2762e-05
-8.73294e-06
4.7323e-05
0.000127648
0.000231567
0.000357985
0.000505293
0.000671227
0.000852776
0.00104618
0.00124673
0.00144876
0.00164586
0.00183096
0.00199659
0.00213526
0.00223961
0.00230774
0.00231894
-0.000104073
-0.000106707
-7.21882e-05
-1.51326e-05
6.70367e-05
0.000173867
0.000304489
0.000457513
0.000630869
0.000821698
0.00102628
0.00123972
0.00145644
0.00166951
0.00187117
0.00205306
0.00220655
0.0023229
0.0023994
0.00241264
-0.000195315
-0.000199203
-0.000164062
-0.000105596
-2.07861e-05
9.02158e-05
0.000226849
0.000388024
0.000571941
0.000775945
0.000996385
0.00122843
0.00146621
0.00170236
0.00192821
0.00213411
0.00230974
0.00244422
0.00253349
0.00255019
-0.000316148
-0.000321765
-0.000286007
-0.000225954
-0.000137986
-2.18543e-05
0.000122298
0.000293789
0.000491183
0.00071212
0.000953129
0.00120959
0.00147535
0.0017425
0.00200135
0.00224054
0.00244742
0.00260798
0.00271589
0.00273808
-0.000468306
-0.000476291
-0.000440146
-0.000378653
-0.000287397
-0.000165585
-1.281e-05
0.000170787
0.00038427
0.000625721
0.000892034
0.00117878
0.00147984
0.00178685
0.00208902
0.0023729
0.00262276
0.00282012
0.00295488
0.00298586
-0.000653881
-0.000665107
-0.000629119
-0.000566773
-0.000472597
-0.000345087
-0.00018311
1.38863e-05
0.000245621
0.000510789
0.000806848
0.00112977
0.00147385
0.0018305
0.00218804
0.00253081
0.00283908
0.00308827
0.00326179
0.00330711
-0.000875239
-0.0008909
-0.000856042
-0.000794011
-0.000697938
-0.000565382
-0.000394291
-0.000183248
6.82737e-05
0.000359765
0.000689485
0.00105417
0.00144902
0.00186583
0.00229259
0.0027118
0.00309904
0.00342167
0.00365178
0.0037217
-0.00113496
-0.0011567
-0.00112452
-0.00106474
-0.000968617
-0.000832498
-0.000653177
-0.000428225
-0.000156187
0.000163371
0.000529771
0.000940941
0.00139372
0.00188129
0.00239255
0.00290932
0.00340277
0.00383066
0.00414472
0.00425961
-0.00143574
-0.00146585
-0.00143869
-0.00138408
-0.00129081
-0.00115358
-0.000967803
-0.000729943
-0.000437602
-8.93636e-05
0.000315329
0.000775999
0.00129219
0.00185989
0.00247113
0.00310964
0.00374404
0.00432486
0.00476551
0.0049675
-0.00178057
-0.00182224
-0.0018034
-0.00175818
-0.00167191
-0.00153708
-0.00134749
-0.00109853
-0.000787028
-0.000410778
3.21238e-05
0.00054342
0.00112418
0.00177746
0.00250145
0.00328664
0.00410373
0.00490828
0.00554328
0.00592106
-0.00217091
-0.00222923
-0.00222377
-0.00219431
-0.00212088
-0.00199306
-0.00180297
-0.00154518
-0.00121632
-0.000814164
-0.00033632
0.000220918
0.000861878
0.00160058
0.00244292
0.00339476
0.00443879
0.00556403
0.00648967
0.00726111
-0.00262005
-0.00269599
-0.00270822
-0.00270228
-0.00264906
-0.00253374
-0.00234658
-0.00208185
-0.00173704
-0.00131116
-0.000801573
-0.000201005
0.000501218
0.00130877
0.00225099
0.00336138
0.00465481
0.00622015
0.00756774
0.0091987
-0.00308224
-0.00322584
-0.0032602
-0.00329906
-0.00327522
-0.00317628
-0.00299317
-0.00272125
-0.00236036
-0.00191322
-0.00138519
-0.000781963
-0.000109384
0.000724032
0.0017176
0.00295298
0.00446383
0.00667733
0.00855636
0.0119585
-0.00371958
-0.00375213
-0.00386046
-0.00392536
-0.00395826
-0.00390388
-0.00374375
-0.00347004
-0.00308909
-0.00261033
-0.00204088
-0.00137755
-0.000597183
0.000284656
0.00130378
0.00259098
0.00416836
0.00687139
0.00905617
0.01507
-0.00414182
-0.00486346
-0.00480798
-0.00509464
-0.00510293
-0.00499815
-0.00476563
-0.0044214
-0.00398229
-0.00346377
-0.00288911
-0.0022742
-0.00164137
-0.00101505
-0.000382871
0.000480227
0.0011242
0.00456356
0.00561986
0.0171323
-0.00565322
-0.00458818
-0.00505952
-0.00517447
-0.00544698
-0.00553097
-0.00545387
-0.00519316
-0.00477515
-0.00422788
-0.00360477
-0.00292452
-0.00225783
-0.00158899
-0.0011039
-0.000397427
-0.000905236
0.00211217
0.00204396
0.0194667
-0.00413721
-0.00766406
-0.00734904
-0.0083948
-0.0083022
-0.00808356
-0.0076033
-0.0069761
-0.00627132
-0.00549238
-0.00474824
-0.00403717
-0.00346199
-0.00311492
-0.00336798
-0.00369678
-0.00718418
-0.00499573
-0.0054168
0.0236282
-0.0158575
-0.00505896
-0.00570432
-0.00649835
-0.00690942
-0.0070716
-0.00701812
-0.00670015
-0.00619535
-0.00548863
-0.00484261
-0.00399287
-0.00355811
-0.00281057
-0.00303231
-0.00244772
-0.00200049
0.00676162
0.0287782
0.0848917
-1.35671e-06
-2.18879e-06
3.17801e-05
8.80074e-05
0.000168189
0.000271389
0.000396245
0.000540882
0.000702825
0.000878892
0.00106517
0.00125693
0.00144872
0.00163444
0.00180752
0.00196119
0.00208884
0.0021842
0.00224571
0.00225544
-2.18813e-06
-3.52453e-06
3.021e-05
8.56319e-05
0.000164841
0.000267023
0.00039094
0.000534847
0.000696364
0.000872394
0.00105896
0.00125177
0.00144507
0.00163273
0.00180805
0.00196412
0.00209407
0.00219135
0.00225451
0.00226431
-3.91888e-05
-4.14233e-05
-7.4581e-06
4.84591e-05
0.000128672
0.000232497
0.000358845
0.000506112
0.000672042
0.000853625
0.00104712
0.00124781
0.00145002
0.00164733
0.00183265
0.00199848
0.00213727
0.00224162
0.0023097
0.00232024
-0.00010165
-0.000104874
-7.0479e-05
-1.36152e-05
6.83999e-05
0.0001751
0.00030562
0.000458576
0.000631902
0.000822732
0.00102729
0.00124097
0.0014579
0.0016712
0.00187311
0.00205523
0.00220888
0.00232525
0.00240172
0.00241425
-0.000192311
-0.000196863
-0.000161883
-0.000103655
-1.90409e-05
9.17939e-05
0.000228293
0.000389378
0.000573261
0.000777314
0.000997938
0.00123004
0.00146801
0.00170442
0.00193058
0.00213679
0.00231267
0.00244724
0.00253651
0.00255242
-0.000312468
-0.000318828
-0.000283267
-0.000223502
-0.00013578
-1.9861e-05
0.000124117
0.000295487
0.000492825
0.00071379
0.000954909
0.00121155
0.00147757
0.00174508
0.00200436
0.002244
0.00245127
0.00261203
0.00272004
0.00274135
-0.000463776
-0.0004726
-0.000436696
-0.000375559
-0.000284616
-0.000163084
-1.05413e-05
0.000172887
0.000386282
0.000627741
0.000894168
0.00118116
0.00148259
0.00179009
0.00209287
0.00237744
0.00262794
0.00282574
0.00296076
0.00299073
-0.000648239
-0.000660426
-0.000624743
-0.000562854
-0.000469095
-0.000341965
-0.000180312
1.64418e-05
0.000248037
0.000513192
0.000809385
0.00113262
0.00147719
0.00183454
0.00219297
0.00253679
0.00284614
0.00309619
0.00327032
0.0033146
-0.000868105
-0.000884889
-0.000850438
-0.000789018
-0.000693525
-0.000561511
-0.000390888
-0.000180207
7.10917e-05
0.000362527
0.000692394
0.00105747
0.00145296
0.00187073
0.00229879
0.00271961
0.00310865
0.00343293
0.00366433
0.00373352
-0.00112577
-0.00114886
-0.00111726
-0.00105833
-0.000963057
-0.000827737
-0.000649115
-0.000424716
-0.000153043
0.000166378
0.00053291
0.000944537
0.00139813
0.00188699
0.0024001
0.0029193
0.0034157
0.00384667
0.00416326
0.00427849
-0.00142368
-0.00145546
-0.00142916
-0.00137581
-0.00128381
-0.00114779
-0.000963078
-0.000726074
-0.000434329
-8.63787e-05
0.000318381
0.000779555
0.0012967
0.00186606
0.00247981
0.00312188
0.00376093
0.00434731
0.00479279
0.00499815
-0.00176434
-0.0018082
-0.00179069
-0.00174741
-0.00166311
-0.00153015
-0.0013422
-0.00109456
-0.000784019
-0.000408308
3.45001e-05
0.000546213
0.00112799
0.00178326
0.00251047
0.00330055
0.00412461
0.00493877
0.00558269
0.00597075
-0.00214836
-0.00220981
-0.0022065
-0.00218016
-0.00210986
-0.00198497
-0.00179741
-0.00154165
-0.00121428
-0.000813048
-0.00033559
0.000221803
0.000863713
0.00160453
0.00245055
0.00340844
0.0044621
0.00560285
0.00654389
0.00734261
-0.00258829
-0.00266855
-0.00268423
-0.00268345
-0.0026353
-0.00252462
-0.00234137
-0.00207974
-0.00173719
-0.00131263
-0.000803758
-0.000203353
0.000499139
0.0013082
0.00225369
0.00337012
0.00467486
0.00626398
0.00763555
0.00933166
-0.00303524
-0.00318721
-0.00322634
-0.00327447
-0.00325871
-0.00316701
-0.00298975
-0.00272226
-0.00236444
-0.00191933
-0.00139274
-0.000790959
-0.000118513
0.000714577
0.00170857
0.00294596
0.00446382
0.00670785
0.00861946
0.0121519
-0.00364693
-0.00368718
-0.00380665
-0.00388521
-0.00393283
-0.00389162
-0.00374197
-0.0034758
-0.0030995
-0.00262313
-0.00205445
-0.00139085
-0.000610814
0.000272987
0.00128347
0.0025651
0.00412859
0.00685457
0.00903345
0.0152674
-0.00402594
-0.00477781
-0.00473774
-0.00505882
-0.00508687
-0.00500111
-0.00478126
-0.0044446
-0.00400947
-0.00349287
-0.00291911
-0.00230581
-0.00167839
-0.00106526
-0.00044337
0.000392872
0.000958764
0.00437296
0.00535593
0.0171655
-0.00549663
-0.00446143
-0.00494894
-0.00509725
-0.00540583
-0.00551965
-0.00546592
-0.00522035
-0.00481077
-0.00426769
-0.00364599
-0.0029668
-0.00230787
-0.00165553
-0.0012161
-0.000577157
-0.0012575
0.00164876
0.00152596
0.0193584
-0.00376848
-0.00740672
-0.00717051
-0.00831316
-0.00829395
-0.00813437
-0.00768401
-0.00706812
-0.00636277
-0.0055798
-0.00482661
-0.00410839
-0.00353448
-0.00320421
-0.00351196
-0.00394799
-0.00769575
-0.00576846
-0.00558617
0.0237724
-0.0155663
-0.00479771
-0.00548537
-0.00637732
-0.00687624
-0.00709023
-0.00706401
-0.00676245
-0.00626312
-0.00555128
-0.00490481
-0.00404596
-0.00363085
-0.0028998
-0.00319859
-0.00269461
-0.0021959
0.00677935
0.030443
0.0876576
-5.52066e-07
-1.63059e-06
3.23338e-05
8.85002e-05
0.000168653
0.000271854
0.000396741
0.000541453
0.000703502
0.00087971
0.00106616
0.00125814
0.00145019
0.00163618
0.00180951
0.00196339
0.00209118
0.00218655
0.00224801
0.0022573
-7.21665e-07
-2.38436e-06
3.12889e-05
8.66081e-05
0.000165737
0.00026786
0.000391744
0.000535649
0.000697199
0.000873299
0.00105998
0.00125296
0.00144646
0.00163434
0.00180988
0.00196613
0.00209619
0.00219347
0.00225658
0.0022659
-3.72255e-05
-3.98605e-05
-6.01434e-06
4.97499e-05
0.000129842
0.000233575
0.00035986
0.000507097
0.00067303
0.000854641
0.00104816
0.00124909
0.00145153
0.00164907
0.00183462
0.00200065
0.00213957
0.00224394
0.00231197
0.00232201
-9.91223e-05
-0.000102803
-6.85722e-05
-1.19104e-05
6.99385e-05
0.000176504
0.000306922
0.000459814
0.000633114
0.000823917
0.00102816
0.00124241
0.00145962
0.00167318
0.00187536
0.00205773
0.00221157
0.00232798
0.00240442
0.00241641
-0.00018917
-0.000194231
-0.000159455
-0.000101479
-1.70781e-05
9.35773e-05
0.000229936
0.00039093
0.00057479
0.000778942
0.00100009
0.00123195
0.0014701
0.0017068
0.00193331
0.00213987
0.00231602
0.0024507
0.00254
0.00255534
-0.000308597
-0.000315524
-0.00028021
-0.000220755
-0.000133305
-1.76217e-05
0.000126167
0.000297407
0.000494695
0.000715711
0.000957021
0.0012138
0.00148011
0.00174802
0.00200778
0.00224792
0.00245564
0.00261666
0.00272479
0.0027455
-0.000458982
-0.000468445
-0.000432846
-0.000372097
-0.000281508
-0.00016029
-8.00673e-06
0.000175236
0.000388537
0.000630016
0.000896585
0.00118384
0.00148568
0.00179374
0.00209721
0.00238253
0.00263377
0.0028321
0.00296746
0.00299685
-0.000642237
-0.000655158
-0.000619863
-0.000558477
-0.000465194
-0.000338497
-0.00017721
1.92713e-05
0.000250714
0.00051586
0.000812208
0.00113579
0.0014809
0.00183902
0.00219844
0.00254343
0.002854
0.00310506
0.00327993
0.00332381
-0.000860484
-0.000878132
-0.000844197
-0.000783457
-0.000688628
-0.000557232
-0.000387141
-0.000176866
7.41854e-05
0.000365565
0.000695597
0.00106109
0.0014573
0.00187613
0.0023056
0.0027282
0.00311923
0.0034454
0.00367829
0.00374757
-0.00111593
-0.00114008
-0.00110919
-0.00105123
-0.000956912
-0.0008225
-0.000644668
-0.000420885
-0.000149613
0.000169663
0.000536344
0.000948463
0.00140295
0.00189322
0.00240832
0.00293017
0.00342979
0.0038642
0.0041837
0.00430025
-0.00141072
-0.00144385
-0.00141861
-0.00136667
-0.00127611
-0.00114145
-0.000957935
-0.000721874
-0.000430774
-8.31304e-05
0.000321697
0.000783382
0.0013016
0.00187274
0.00248918
0.00313509
0.00377921
0.00437174
0.00482278
0.00503247
-0.0017469
-0.00179258
-0.00177669
-0.00173558
-0.00165349
-0.00152262
-0.00133649
-0.00109029
-0.000780767
-0.000405621
3.70683e-05
0.000549191
0.00113211
0.00178946
0.00252004
0.00331536
0.00414708
0.00497195
0.00562637
0.00602628
-0.00212426
-0.00218843
-0.00218767
-0.00216475
-0.00209791
-0.00197625
-0.00179147
-0.00153789
-0.00121214
-0.000811923
-0.000334973
0.000222479
0.000865102
0.00160823
0.00245801
0.00342234
0.00448678
0.0056452
0.00660524
0.00743423
-0.00255437
-0.00263868
-0.0026584
-0.00266326
-0.00262062
-0.00251497
-0.00233596
-0.00207758
-0.00173747
-0.00131464
-0.000806849
-0.000207059
0.000495149
0.00130639
0.00225507
0.0033779
0.00469577
0.00631181
0.00771448
0.00948162
-0.00298565
-0.00314549
-0.00319048
-0.00324842
-0.00324143
-0.00315746
-0.00298651
-0.00272381
-0.00236953
-0.001927
-0.00140257
-0.000804023
-0.000141301
0.000698065
0.0016921
0.00293093
0.00445791
0.00673773
0.00869631
0.0123778
-0.00357062
-0.00361861
-0.00375108
-0.00384467
-0.00390777
-0.00388016
-0.00374161
-0.00348325
-0.00311207
-0.00263882
-0.00207192
-0.00140851
-0.000622574
0.00025085
0.00124772
0.00251783
0.00407393
0.00682997
0.00905176
0.0155429
-0.00391332
-0.00470157
-0.00467237
-0.00502654
-0.00507454
-0.00500598
-0.00479778
-0.00446852
-0.00403787
-0.00352404
-0.00295273
-0.00234315
-0.00172384
-0.00113056
-0.000534308
0.000243148
0.00076225
0.00416492
0.00513409
0.0173391
-0.00532267
-0.0043153
-0.0048313
-0.00501748
-0.00536374
-0.0055093
-0.0054797
-0.00524974
-0.00484925
-0.00431072
-0.00369183
-0.00301583
-0.0023663
-0.00173251
-0.00133413
-0.000744688
-0.00160205
0.0011966
0.000953386
0.0194458
-0.0034909
-0.00725108
-0.00703695
-0.00826734
-0.00829386
-0.0081763
-0.00775082
-0.00714632
-0.00644409
-0.00565941
-0.00490322
-0.00418318
-0.00361609
-0.00331221
-0.00366727
-0.00423241
-0.00818468
-0.00648084
-0.0061551
0.0242137
-0.015203
-0.00449063
-0.00524379
-0.00622906
-0.00681373
-0.00708821
-0.00710463
-0.00682452
-0.00633601
-0.00562366
-0.00497924
-0.0041143
-0.0037129
-0.00299705
-0.00334468
-0.00291883
-0.00247906
0.00656365
0.030761
0.0896418
4.68447e-07
-6.94824e-07
3.32519e-05
8.93739e-05
0.000169486
0.000272657
0.000397533
0.000542259
0.000704353
0.000880639
0.0010672
0.00125933
0.00145156
0.00163773
0.00181125
0.00196529
0.00209319
0.00218861
0.00225008
0.00225924
5.76936e-07
-1.20225e-06
3.24254e-05
8.76744e-05
0.000166738
0.000268808
0.000392659
0.000536557
0.000698129
0.000874286
0.00106106
0.00125417
0.00144784
0.0016359
0.00181162
0.00196803
0.00209821
0.00219553
0.00225865
0.00226785
-3.56035e-05
-3.83821e-05
-4.61262e-06
5.10515e-05
0.000131051
0.000234707
0.000360936
0.000508146
0.000674085
0.000855739
0.00104935
0.00125041
0.00145303
0.00165077
0.00183652
0.00200274
0.00214181
0.00224625
0.0023143
0.00232422
-9.70719e-05
-0.000100922
-6.67997e-05
-1.0275e-05
7.14452e-05
0.000177899
0.00030823
0.000461069
0.000634358
0.000825199
0.00102961
0.00124392
0.00146132
0.00167512
0.00187754
0.00206016
0.0022142
0.00233073
0.00240723
0.00241911
-0.000186601
-0.000191858
-0.000157225
-9.94283e-05
-1.52014e-05
9.52986e-05
0.000231532
0.000392443
0.000576273
0.000780452
0.00100162
0.00123372
0.0014721
0.0017091
0.00193594
0.00214283
0.00231928
0.00245417
0.00254361
0.00255883
-0.000305381
-0.000312538
-0.000277408
-0.000218188
-0.000130971
-1.55011e-05
0.00012811
0.000299224
0.000496453
0.000717492
0.000958909
0.00121589
0.00148249
0.00175078
0.002011
0.00225163
0.00245981
0.0026212
0.00272959
0.00275023
-0.000454937
-0.000464676
-0.000429316
-0.000368879
-0.000278606
-0.000157686
-5.6583e-06
0.000177394
0.00039059
0.000632067
0.000898752
0.00118625
0.00148847
0.00179706
0.00210117
0.00238723
0.0026392
0.00283815
0.00297399
0.0030034
-0.000637109
-0.000650366
-0.000615394
-0.000554431
-0.000461588
-0.000335315
-0.0001744
2.17916e-05
0.000253054
0.000518156
0.00081462
0.0011385
0.00148411
0.00184294
0.00220328
0.00254935
0.00286109
0.00311322
0.00328894
0.00333303
-0.000853911
-0.000871982
-0.000838495
-0.000778349
-0.000684149
-0.000553367
-0.000383828
-0.000173998
7.67537e-05
0.000368016
0.000698147
0.00106399
0.00146082
0.00188059
0.00231134
0.00273554
0.00312841
0.00345638
0.00369078
0.00376071
-0.0011074
-0.00113209
-0.00110186
-0.00104475
-0.000951351
-0.000817846
-0.000640841
-0.000417742
-0.000146956
0.000172076
0.000538798
0.000951283
0.00140652
0.00189797
0.00241479
0.00293894
0.00344138
0.00387883
0.00420099
0.00431913
-0.0013995
-0.00143337
-0.00140907
-0.00135841
-0.00126921
-0.00113591
-0.000953633
-0.000718615
-0.00042829
-8.11009e-05
0.000323642
0.000785652
0.00130469
0.00187724
0.00249584
0.00314489
0.00379318
0.00439075
0.00484645
0.00505974
-0.00173191
-0.00177864
-0.00176418
-0.00172498
-0.00164494
-0.0015161
-0.00133183
-0.00108721
-0.000778895
-0.000404546
3.78584e-05
0.000550163
0.00113382
0.00179262
0.00252565
0.00332498
0.00416258
0.00499546
0.00565788
0.00606554
-0.00210393
-0.00216967
-0.00217107
-0.00215107
-0.00208734
-0.00196873
-0.00178671
-0.00153548
-0.00121153
-0.000812537
-0.00033621
0.000221163
0.000864022
0.00160815
0.00246008
0.00342902
0.00450128
0.00567187
0.00664514
0.00749045
-0.00252653
-0.00261319
-0.00263611
-0.0026455
-0.00260758
-0.00250647
-0.00233153
-0.00207657
-0.00173904
-0.00131807
-0.000811403
-0.000211998
0.000490139
0.00130172
0.00225118
0.00337741
0.00470425
0.00633716
0.00776073
0.00956055
-0.00294724
-0.00311104
-0.00316038
-0.0032255
-0.00322553
-0.00314826
-0.00298315
-0.00272525
-0.00237473
-0.00193508
-0.00141305
-0.000817964
-0.000170384
0.000678423
0.00167113
0.00290968
0.00444464
0.00674745
0.0087383
0.0124818
-0.00351551
-0.00356748
-0.00370765
-0.00381156
-0.0038858
-0.00386873
-0.00373924
-0.00348814
-0.00312232
-0.00265296
-0.0020891
-0.00142735
-0.000632028
0.000227434
0.00121258
0.002473
0.0040325
0.00681019
0.00907051
0.0156625
-0.00384065
-0.00464262
-0.00461963
-0.00499306
-0.00505447
-0.00499914
-0.00480207
-0.0044813
-0.00405691
-0.00354782
-0.0029809
-0.00237681
-0.00176618
-0.00118966
-0.000614322
0.000110198
0.000634985
0.00405263
0.0050666
0.0174196
-0.00522143
-0.00422367
-0.00475234
-0.00495895
-0.00532736
-0.00549307
-0.00548081
-0.00526405
-0.00487289
-0.00434078
-0.00372708
-0.00305641
-0.00241473
-0.00179169
-0.00140839
-0.000814933
-0.00175989
0.000998412
0.000772896
0.0194866
-0.00336683
-0.00715168
-0.00694105
-0.00820612
-0.00825905
-0.00817005
-0.00776605
-0.0071758
-0.00648269
-0.00570315
-0.00495061
-0.00423477
-0.00367594
-0.00339012
-0.00377189
-0.00440022
-0.00844318
-0.00681966
-0.00637262
0.0243578
-0.0150396
-0.00433331
-0.005112
-0.00613568
-0.00676284
-0.007072
-0.00711368
-0.00684999
-0.00637272
-0.00566559
-0.00502593
-0.00416382
-0.00377308
-0.00307184
-0.00344786
-0.00306007
-0.00264581
0.00644139
0.0308909
0.0902707
1.51023e-06
2.91257e-07
3.42007e-05
9.02758e-05
0.000170345
0.000273485
0.000398349
0.000543084
0.000705213
0.000881563
0.00106822
0.00126047
0.00145284
0.00163916
0.00181283
0.00196701
0.00209502
0.00219049
0.00225198
0.00226109
1.77898e-06
-6.145e-08
3.3519e-05
8.87091e-05
0.000167716
0.000269741
0.000393564
0.000537457
0.000699051
0.000875262
0.00106213
0.00125535
0.00144915
0.00163736
0.00181324
0.00196979
0.00210009
0.00219747
0.00226062
0.00226977
-3.41557e-05
-3.70082e-05
-3.30265e-06
5.22827e-05
0.000132206
0.000235796
0.000361978
0.000509167
0.000675115
0.000856817
0.00105051
0.00125169
0.00145446
0.00165237
0.0018383
0.00200469
0.0021439
0.00224843
0.00231654
0.0023264
-9.52771e-05
-9.92156e-05
-6.51792e-05
-8.76085e-06
7.28527e-05
0.000179211
0.000309468
0.000462263
0.000635546
0.000826434
0.00103098
0.00124537
0.00146293
0.00167694
0.00187959
0.00206243
0.00221666
0.00233333
0.00240992
0.00242176
-0.000184362
-0.000189724
-0.000155204
-9.75506e-05
-1.34703e-05
9.68944e-05
0.000233017
0.000393853
0.000577653
0.000781848
0.00100304
0.00123535
0.00147396
0.00171122
0.00193836
0.00214557
0.00232231
0.00245743
0.00254701
0.00256222
-0.000302575
-0.000309859
-0.000274879
-0.00021585
-0.000128835
-1.35562e-05
0.000129892
0.000300889
0.000498059
0.000719108
0.00096061
0.00121778
0.00148465
0.0017533
0.00201393
0.00225501
0.00246364
0.00262539
0.00273404
0.00275471
-0.0004514
-0.000461294
-0.000426137
-0.000365961
-0.000275969
-0.00015532
-3.53044e-06
0.00017934
0.000392431
0.000633895
0.000900674
0.00118839
0.00149096
0.00180002
0.00210472
0.00239144
0.00264409
0.00284364
0.00297992
0.00300947
-0.000632616
-0.000646069
-0.000611375
-0.000550778
-0.000458332
-0.00033245
-0.000171886
2.40274e-05
0.000255113
0.000520163
0.00081672
0.00114085
0.00148691
0.00184636
0.00220751
0.00255455
0.00286732
0.00312043
0.00329692
0.00334133
-0.000848151
-0.000866478
-0.000833385
-0.000773757
-0.000680129
-0.000549918
-0.000380898
-0.000171492
7.89717e-05
0.000370113
0.000700318
0.00106645
0.00146382
0.0018844
0.00231625
0.00274182
0.00313626
0.00346581
0.00370153
0.00377214
-0.00109995
-0.00112498
-0.00109531
-0.00103895
-0.000946391
-0.000813725
-0.00063749
-0.00041503
-0.0001447
0.000174098
0.000540845
0.000953639
0.00140951
0.00190196
0.0024202
0.00294626
0.00345103
0.003891
0.00421537
0.00433489
-0.00138974
-0.00142409
-0.00140063
-0.00135107
-0.00126309
-0.00113103
-0.000949892
-0.000715831
-0.000426213
-7.94228e-05
0.000325249
0.000787554
0.0013073
0.00188097
0.00250129
0.00315285
0.00380449
0.00440607
0.00486547
0.00508151
-0.00171899
-0.00176644
-0.00175321
-0.00171564
-0.00163741
-0.00151039
-0.00132779
-0.00108459
-0.000777345
-0.000403668
3.85164e-05
0.000551115
0.0011356
0.00179536
0.00253018
0.00333259
0.00417479
0.00501387
0.00568246
0.00609568
-0.00208667
-0.0021535
-0.00215671
-0.00213914
-0.00207807
-0.00196213
-0.00178255
-0.0015334
-0.00121106
-0.000813149
-0.000337204
0.000220682
0.000864766
0.00160877
0.00246191
0.00343417
0.00451239
0.00569224
0.00667554
0.00753224
-0.00250333
-0.00259163
-0.00261717
-0.0026302
-0.00259619
-0.00249896
-0.00232756
-0.00207559
-0.00174045
-0.00132112
-0.000814932
-0.000213603
0.000494831
0.00130041
0.00224819
0.00337662
0.0047104
0.00635601
0.00779554
0.00961777
-0.00291603
-0.00308247
-0.00313535
-0.00320596
-0.00321164
-0.00313992
-0.00297986
-0.00272617
-0.00237908
-0.00194201
-0.0014212
-0.000821919
-0.000136957
0.000669481
0.00165364
0.00289075
0.00443328
0.00675454
0.0087704
0.0125567
-0.0034721
-0.00352692
-0.00367299
-0.00378469
-0.00386745
-0.00385871
-0.00373663
-0.00349158
-0.00313059
-0.00266527
-0.00210574
-0.00145339
-0.000700997
0.000196952
0.00117976
0.00243148
0.00399935
0.00679636
0.00909001
0.0157508
-0.00378626
-0.00459692
-0.00457823
-0.0049647
-0.00503654
-0.00499166
-0.00480335
-0.00448971
-0.00407104
-0.00356682
-0.00300512
-0.00240879
-0.00181201
-0.00124401
-0.000687173
-2.93498e-05
0.00053368
0.00397562
0.00502674
0.0174887
-0.00514448
-0.00415251
-0.00469164
-0.00491307
-0.00529746
-0.00547876
-0.00547985
-0.00527366
-0.00489048
-0.00436442
-0.00375622
-0.00309161
-0.0024577
-0.00184105
-0.00146178
-0.00083065
-0.00186221
0.000869831
0.000654006
0.0195317
-0.00328807
-0.00708459
-0.00687299
-0.00815968
-0.00822993
-0.0081598
-0.0077714
-0.00719307
-0.00650852
-0.00573472
-0.00498722
-0.00427685
-0.00372633
-0.0034545
-0.00385485
-0.0045206
-0.00862452
-0.00703804
-0.00655568
0.0244447
-0.0149216
-0.00421823
-0.00501343
-0.00606134
-0.00671625
-0.00705104
-0.00711371
-0.00686549
-0.00639855
-0.00569765
-0.00506358
-0.00420578
-0.00382409
-0.00313341
-0.00352896
-0.00316087
-0.00278047
0.00632986
0.0308403
0.0905721
2.45395e-06
1.20785e-06
3.50874e-05
9.11258e-05
0.000171159
0.00027427
0.000399118
0.000543854
0.000706006
0.000882402
0.00106913
0.00126147
0.00145395
0.0016404
0.00181419
0.00196848
0.00209658
0.00219212
0.00225364
0.00226274
2.82155e-06
9.49697e-07
3.4494e-05
8.96398e-05
0.000168602
0.00027059
0.000394389
0.000538275
0.000699887
0.000876141
0.00106308
0.00125639
0.0014503
0.00163864
0.00181465
0.00197133
0.00210172
0.00219918
0.00226237
0.00227152
-3.293e-05
-3.58206e-05
-2.16232e-06
5.33645e-05
0.000133227
0.000236765
0.000362908
0.000510079
0.000676037
0.000857778
0.00105155
0.00125282
0.00145571
0.00165376
0.00183985
0.00200639
0.00214573
0.00225035
0.00231852
0.00232838
-9.37797e-05
-9.7765e-05
-6.37922e-05
-7.45382e-06
7.40758e-05
0.000180357
0.000310554
0.000463312
0.000636591
0.000827517
0.00103217
0.00124663
0.00146433
0.00167851
0.00188136
0.0020644
0.0022188
0.00233561
0.00241229
0.00242415
-0.000182502
-0.000187923
-0.000153489
-9.59452e-05
-1.19824e-05
9.82715e-05
0.000234301
0.000395074
0.000578847
0.000783055
0.00100429
0.00123676
0.00147555
0.00171305
0.00194045
0.00214792
0.00232492
0.00246025
0.00254998
0.00256524
-0.000300245
-0.000307604
-0.000272741
-0.000213863
-0.000127012
-1.18928e-05
0.000131417
0.000302311
0.000499426
0.000720478
0.000962049
0.00121937
0.00148648
0.00175543
0.00201642