/*--------------------------------*- C++ -*----------------------------------*\
  =========                 |
  \\      /  F ield         | OpenFOAM: The Open Source CFD Toolbox
   \\    /   O peration     | Website:  https://openfoam.org
    \\  /    A nd           | Version:  9
     \\/     M anipulation  |
\*---------------------------------------------------------------------------*/
FoamFile
{
    format      ascii;
    class       surfaceScalarField;
    location    "3";
    object      phi;
}
// * * * * * * * * * * * * * * * * * * * * * * * * * * * * * * * * * * * * * //

dimensions      [0 3 -1 0 0 0 0];

internalField   nonuniform List<scalar> 
22800
(
-4.97072e-06
5.0431e-06
-7.24164e-08
-1.15768e-05
6.56545e-06
4.06671e-08
-1.81056e-05
6.46706e-06
6.16688e-08
-2.42721e-05
6.09302e-06
7.35384e-08
-2.99201e-05
5.57531e-06
7.26973e-08
-3.4914e-05
4.92954e-06
6.42913e-08
-3.91284e-05
4.16401e-06
5.03768e-08
-4.24481e-05
3.28806e-06
3.17073e-08
-4.47694e-05
2.31268e-06
8.58703e-09
-4.60029e-05
1.2509e-06
-1.7405e-08
-4.60746e-05
1.20405e-07
-4.86451e-08
-4.49289e-05
-1.06401e-06
-8.17383e-08
-4.25413e-05
-2.27075e-06
-1.16845e-07
-3.89205e-05
-3.46843e-06
-1.52332e-07
-3.41164e-05
-4.61813e-06
-1.86039e-07
-2.8227e-05
-5.67449e-06
-2.14893e-07
-2.14061e-05
-6.58692e-06
-2.33956e-07
-1.38793e-05
-7.29237e-06
-2.34426e-07
-6.05968e-06
-7.6028e-06
-2.1684e-07
-5.98776e-06
-7.19283e-08
-6.6884e-06
1.19479e-05
-2.16447e-07
-1.5296e-05
1.52728e-05
-9.97512e-08
-2.3779e-05
1.50212e-05
-7.10476e-08
-3.17733e-05
1.41342e-05
-4.68547e-08
-3.90745e-05
1.29102e-05
-3.37152e-08
-4.55066e-05
1.1388e-05
-2.6408e-08
-5.09101e-05
9.59068e-06
-2.31422e-08
-5.51411e-05
7.54259e-06
-2.35543e-08
-5.80717e-05
5.27107e-06
-2.77353e-08
-5.95903e-05
2.80538e-06
-3.58632e-08
-5.96236e-05
2.01206e-07
-4.75471e-08
-5.80908e-05
-2.53303e-06
-6.37377e-08
-5.49707e-05
-5.30853e-06
-8.23646e-08
-5.02785e-05
-8.05789e-06
-1.02731e-07
-4.4079e-05
-1.06947e-05
-1.22927e-07
-3.6497e-05
-1.31166e-05
-1.39899e-07
-2.7727e-05
-1.52086e-05
-1.4837e-07
-1.80541e-05
-1.68265e-05
-1.38772e-07
-7.99696e-06
-1.75465e-05
-1.13525e-07
-1.40261e-05
4.1373e-08
-7.09693e-06
1.93109e-05
-2.65983e-07
-1.623e-05
2.45525e-05
-1.4664e-07
-2.52253e-05
2.41317e-05
-1.15132e-07
-3.37021e-05
2.26978e-05
-8.68711e-08
-4.14475e-05
2.07251e-05
-6.94662e-08
-4.8279e-05
1.82771e-05
-5.75561e-08
-5.4031e-05
1.53921e-05
-4.94497e-08
-5.85542e-05
1.21106e-05
-4.49114e-08
-6.17158e-05
8.47681e-06
-4.41313e-08
-6.34041e-05
4.54094e-06
-4.72506e-08
-6.35179e-05
3.69512e-07
-5.45129e-08
-6.19765e-05
-4.00809e-06
-6.63165e-08
-5.87488e-05
-8.45457e-06
-8.16151e-08
-5.38368e-05
-1.28705e-05
-9.93715e-08
-4.72933e-05
-1.71207e-05
-1.17526e-07
-3.92366e-05
-2.10404e-05
-1.32873e-07
-2.9864e-05
-2.44415e-05
-1.39748e-07
-1.94773e-05
-2.70854e-05
-1.27729e-07
-8.63807e-06
-2.8286e-05
-9.96423e-08
-2.27294e-05
6.52137e-08
-7.50841e-06
2.71342e-05
-3.14901e-07
-1.7189e-05
3.44245e-05
-1.91431e-07
-2.67244e-05
3.38244e-05
-1.57339e-07
-3.57165e-05
3.18153e-05
-1.25421e-07
-4.39448e-05
2.90578e-05
-1.04384e-07
-5.12213e-05
2.56423e-05
-8.86999e-08
-5.73762e-05
2.16237e-05
-7.67239e-08
-6.22555e-05
1.70582e-05
-6.83301e-08
-6.57201e-05
1.20052e-05
-6.382e-08
-6.76463e-05
6.53058e-06
-6.34182e-08
-6.79306e-05
7.20485e-07
-6.67235e-08
-6.64664e-05
-5.39474e-06
-7.75037e-08
-6.31969e-05
-1.16328e-05
-9.13051e-08
-5.81022e-05
-1.78571e-05
-1.0809e-07
-5.12124e-05
-2.38843e-05
-1.26077e-07
-4.26278e-05
-2.94833e-05
-1.41752e-07
-3.25412e-05
-3.43792e-05
-1.48797e-07
-2.12748e-05
-3.82164e-05
-1.35411e-07
-9.45142e-06
-4.00049e-05
-1.04562e-07
-3.22558e-05
7.50335e-08
-8.07037e-06
3.55712e-05
-3.6668e-07
-1.84952e-05
4.50855e-05
-2.36215e-07
-2.87651e-05
4.42937e-05
-1.99288e-07
-3.84566e-05
4.16706e-05
-1.63678e-07
-4.73393e-05
3.80798e-05
-1.39404e-07
-5.52188e-05
3.36425e-05
-1.20662e-07
-6.19213e-05
2.8432e-05
-1.05825e-07
-6.72885e-05
2.25203e-05
-9.48667e-08
-7.11752e-05
1.59802e-05
-8.82439e-08
-7.34472e-05
8.88908e-06
-8.64909e-08
-7.39808e-05
1.34424e-06
-9.01565e-08
-7.26523e-05
-6.6237e-06
-9.94906e-08
-6.93661e-05
-1.48054e-05
-1.13668e-07
-6.40622e-05
-2.3029e-05
-1.32045e-07
-5.6732e-05
-3.10619e-05
-1.52625e-07
-4.74422e-05
-3.86015e-05
-1.71484e-07
-3.63714e-05
-4.52688e-05
-1.81255e-07
-2.38637e-05
-5.05561e-05
-1.67951e-07
-1.0632e-05
-5.31024e-05
-1.3419e-07
-4.2956e-05
6.81761e-08
-8.80462e-06
4.48054e-05
-4.29527e-07
-2.01991e-05
5.67693e-05
-2.89392e-07
-3.14226e-05
5.57661e-05
-2.48916e-07
-4.20182e-05
5.24749e-05
-2.08751e-07
-5.17428e-05
4.79851e-05
-1.80643e-07
-6.03964e-05
4.24545e-05
-1.58473e-07
-6.7802e-05
3.59783e-05
-1.40648e-07
-7.37994e-05
2.8645e-05
-1.27264e-07
-7.82389e-05
2.05386e-05
-1.18931e-07
-8.09759e-05
1.17425e-05
-1.16366e-07
-8.18679e-05
2.35644e-06
-1.20237e-07
-8.0762e-05
-7.59875e-06
-1.30855e-07
-7.7513e-05
-1.79069e-05
-1.47528e-07
-7.20026e-05
-2.83693e-05
-1.69993e-07
-6.41583e-05
-3.87101e-05
-1.96172e-07
-5.3988e-05
-4.85501e-05
-2.21732e-07
-4.16331e-05
-5.73859e-05
-2.37789e-07
-2.74533e-05
-6.45089e-05
-2.27036e-07
-1.22847e-05
-6.80801e-05
-1.90899e-07
-5.52839e-05
4.3228e-08
-9.72716e-06
5.50431e-05
-5.10615e-07
-2.23381e-05
6.97385e-05
-3.58255e-07
-3.47515e-05
6.84925e-05
-3.12956e-07
-4.64674e-05
6.44573e-05
-2.6646e-07
-5.72288e-05
5.89793e-05
-2.32902e-07
-6.68311e-05
5.22628e-05
-2.05884e-07
-7.50986e-05
4.44298e-05
-1.83945e-07
-8.18739e-05
3.55876e-05
-1.67356e-07
-8.70077e-05
2.58293e-05
-1.56913e-07
-9.03489e-05
1.52372e-05
-1.5353e-07
-9.17357e-05
3.90123e-06
-1.58061e-07
-9.09829e-05
-8.18005e-06
-1.71472e-07
-8.78799e-05
-2.0817e-05
-1.92823e-07
-8.2226e-05
-3.38007e-05
-2.22516e-07
-7.38473e-05
-4.68302e-05
-2.5854e-07
-6.26507e-05
-5.94505e-05
-2.96183e-07
-4.86974e-05
-7.10147e-05
-3.24605e-07
-3.23354e-05
-8.05493e-05
-3.21547e-07
-1.4563e-05
-8.55672e-05
-2.85325e-07
-6.98375e-05
-9.35761e-09
-1.08602e-05
6.65212e-05
-6.17848e-07
-2.49629e-05
8.42918e-05
-4.50558e-07
-3.88237e-05
8.27516e-05
-3.98282e-07
-5.18891e-05
7.7865e-05
-3.42413e-07
-6.38873e-05
7.1278e-05
-3.00452e-07
-7.46132e-05
6.32546e-05
-2.659e-07
-8.38993e-05
5.39535e-05
-2.37604e-07
-9.16004e-05
4.35047e-05
-2.16111e-07
-9.75772e-05
3.20086e-05
-2.02458e-07
-0.000101681
1.95384e-05
-1.97828e-07
-0.000103734
6.1583e-06
-2.03464e-07
-0.000103521
-8.17191e-06
-2.2107e-07
-0.000100751
-2.3338e-05
-2.49705e-07
-9.51097e-05
-3.91505e-05
-2.90996e-07
-8.62722e-05
-5.53243e-05
-3.434e-07
-7.39717e-05
-7.13492e-05
-4.01872e-07
-5.81125e-05
-8.64203e-05
-4.53499e-07
-3.89603e-05
-9.92327e-05
-4.68915e-07
-1.77178e-05
-0.000106371
-4.38731e-07
-8.74535e-05
-1.01904e-07
-1.2237e-05
7.95205e-05
-7.62224e-07
-2.81461e-05
0.000100778
-5.768e-07
-4.37398e-05
9.88591e-05
-5.13791e-07
-5.83978e-05
9.29664e-05
-4.43381e-07
-7.18347e-05
8.51028e-05
-3.8792e-07
-8.38521e-05
7.56133e-05
-3.4123e-07
-9.43028e-05
6.47068e-05
-3.02749e-07
-0.000103068
5.25435e-05
-2.73415e-07
-0.000110036
3.92307e-05
-2.54544e-07
-0.000115073
2.48236e-05
-2.47659e-07
-0.000118003
9.34251e-06
-2.54585e-07
-0.000118586
-7.31124e-06
-2.77927e-07
-0.000116438
-2.51681e-05
-3.17087e-07
-0.000111108
-4.41048e-05
-3.76072e-07
-0.000102049
-6.39285e-05
-4.54839e-07
-8.87077e-05
-8.41416e-05
-5.4877e-07
-7.06966e-05
-0.000103789
-6.4279e-07
-4.80383e-05
-0.000121192
-6.98879e-07
-2.21822e-05
-0.000131538
-6.88685e-07
-0.000109347
-2.88376e-07
-1.39086e-05
9.43898e-05
-9.60683e-07
-3.19942e-05
0.000119616
-7.52687e-07
-4.96431e-05
0.00011718
-6.72085e-07
-6.61508e-05
0.000110052
-5.78176e-07
-8.1224e-05
0.000100676
-5.00472e-07
-9.46826e-05
8.95059e-05
-4.33954e-07
-0.000106418
7.6821e-05
-3.79049e-07
-0.00011636
6.28232e-05
-3.37147e-07
-0.000124449
4.76291e-05
-3.09766e-07
-0.000130595
3.12679e-05
-2.98713e-07
-0.000134642
1.36959e-05
-3.0652e-07
-0.000136353
-5.26275e-06
-3.37164e-07
-0.000135255
-2.58751e-05
-3.90701e-07
-0.000130733
-4.81511e-05
-4.75499e-07
-0.000121949
-7.21172e-05
-5.95257e-07
-0.000107907
-9.74357e-05
-7.4848e-07
-8.76809e-05
-0.000123096
-9.18789e-07
-6.07153e-05
-0.000147097
-1.06108e-06
-2.87301e-05
-0.000162421
-1.10231e-06
-0.000137423
-6.5482e-07
-1.5957e-05
0.000111588
-1.24127e-06
-3.66684e-05
0.000141331
-1.00322e-06
-5.6743e-05
0.000138147
-8.91855e-07
-7.53699e-05
0.000129438
-7.58449e-07
-9.22613e-05
0.000118211
-6.43364e-07
-0.000107274
0.000105063
-5.44299e-07
-0.000120365
9.03752e-05
-4.63044e-07
-0.000131547
7.44059e-05
-4.01308e-07
-0.000140844
5.72862e-05
-3.60418e-07
-0.000148248
3.90146e-05
-3.42049e-07
-0.000153666
1.94631e-05
-3.49286e-07
-0.000156914
-1.62687e-06
-3.88433e-07
-0.00015745
-2.48789e-05
-4.59865e-07
-0.000154508
-5.05129e-05
-5.80147e-07
-0.000146894
-7.89706e-05
-7.60526e-07
-0.000132981
-0.000110339
-1.00916e-06
-0.000110934
-0.000143828
-1.31504e-06
-7.88921e-05
-0.000177504
-1.63513e-06
-3.88503e-05
-0.000200667
-1.79651e-06
-0.000174883
-1.38943e-06
-1.85231e-05
0.000131762
-1.65042e-06
-4.24235e-05
0.000166598
-1.36732e-06
-6.53547e-05
0.000162278
-1.20038e-06
-8.63741e-05
0.000151456
-9.98798e-07
-0.000105232
0.000137889
-8.20032e-07
-0.000121848
0.000122347
-6.67512e-07
-0.000136285
0.000105356
-5.44506e-07
-0.000148678
8.7251e-05
-4.52415e-07
-0.000159186
6.81854e-05
-3.91109e-07
-0.000167937
4.81272e-05
-3.60786e-07
-0.000174968
2.68569e-05
-3.63529e-07
-0.000180166
3.9753e-06
-4.03714e-07
-0.000183095
-2.14507e-05
-4.99918e-07
-0.000182849
-5.00923e-05
-6.66004e-07
-0.000177882
-8.30084e-05
-9.29598e-07
-0.000165758
-0.00012114
-1.32238e-06
-0.000143284
-0.000164444
-1.85832e-06
-0.000105815
-0.000212434
-2.53787e-06
-5.58297e-05
-0.000247679
-2.97314e-06
-0.000227781
-2.93245e-06
-2.18291e-05
0.000155887
-2.29614e-06
-4.96336e-05
0.000196328
-1.92478e-06
-7.59391e-05
0.000190229
-1.64509e-06
-9.96234e-05
0.000176457
-1.31723e-06
-0.000120536
0.000159829
-1.02692e-06
-0.000138702
0.000141299
-7.86584e-07
-0.000154344
0.000121598
-5.98923e-07
-0.000167779
0.000101149
-4.62659e-07
-0.000179358
8.01371e-05
-3.72837e-07
-0.000189406
5.85003e-05
-3.25162e-07
-0.000198163
3.59295e-05
-3.15464e-07
-0.000205745
1.18978e-05
-3.40414e-07
-0.000211954
-1.47634e-05
-4.77801e-07
-0.000215867
-4.54908e-05
-6.88397e-07
-0.000215798
-8.20315e-05
-1.04661e-06
-0.000208403
-0.000126905
-1.63025e-06
-0.000188771
-0.000181556
-2.51997e-06
-0.000146898
-0.000250431
-3.8767e-06
-8.55185e-05
-0.000304139
-4.91939e-06
-0.000307025
-6.27389e-06
-2.6599e-05
0.000185719
-3.23267e-06
-5.92147e-05
0.000231689
-2.74533e-06
-8.93516e-05
0.000222632
-2.26671e-06
-0.000115844
0.000204671
-1.72145e-06
-0.000138762
0.000183985
-1.23844e-06
-0.000158247
0.00016164
-8.55667e-07
-0.000174759
0.000138681
-5.71171e-07
-0.00018886
0.000115625
-3.75411e-07
-0.000201162
9.26905e-05
-2.51553e-07
-0.000212279
6.98033e-05
-1.85884e-07
-0.000222836
4.66603e-05
-1.73907e-07
-0.000233072
2.23575e-05
-2.23757e-07
-0.000242991
-4.61034e-06
-2.34412e-07
-0.000252775
-3.52506e-05
-4.55947e-07
-0.000260747
-7.31759e-05
-8.83829e-07
-0.000262704
-0.000123297
-1.65008e-06
-0.000252913
-0.000188366
-2.98116e-06
-0.000210819
-0.000286991
-5.53329e-06
-0.000140642
-0.000366528
-7.78843e-06
-0.000434101
-1.35665e-05
-3.10551e-05
0.000222119
-5.34521e-06
-7.064e-05
0.000275403
-4.12905e-06
-0.000106019
0.000261241
-3.22987e-06
-0.00013589
0.000236712
-2.16967e-06
-0.000160724
0.000210164
-1.34393e-06
-0.000181057
0.000182718
-7.45527e-07
-0.000197815
0.00015577
-3.31485e-07
-0.000211909
0.000129784
-6.50652e-08
-0.000224238
0.000104933
8.59114e-08
-0.00023563
8.10296e-05
1.66185e-07
-0.000246866
5.7684e-05
2.12052e-07
-0.000259143
3.43992e-05
2.34916e-07
-0.00027436
1.04345e-05
1.72137e-07
-0.000291886
-1.764e-05
-8.45931e-08
-0.000312318
-5.23439e-05
-3.99629e-07
-0.00033038
-0.00010416
-1.07585e-06
-0.000344725
-0.000171461
-2.55939e-06
-0.0003145
-0.000310689
-6.52703e-06
-0.000244742
-0.000425925
-1.0361e-05
-0.000651741
-2.7102e-05
-5.09743e-05
0.00028085
-7.75637e-06
-9.24772e-05
0.000323827
-6.92193e-06
-0.000130877
0.000304363
-4.72187e-06
-0.00016171
0.000270577
-3.03262e-06
-0.000187241
0.000237157
-1.46258e-06
-0.000207565
0.000203423
-3.80827e-07
-0.00022374
0.000171653
2.92332e-07
-0.000236932
0.000142312
6.64564e-07
-0.000248502
0.000115681
8.22465e-07
-0.000259942
9.16158e-05
8.53959e-07
-0.00027286
6.98012e-05
8.00913e-07
-0.000288491
4.92989e-05
7.30936e-07
-0.000308144
2.93751e-05
7.12483e-07
-0.000333181
6.31539e-06
1.08143e-06
-0.000368516
-1.84157e-05
1.40696e-06
-0.000410647
-6.36185e-05
1.59011e-06
-0.000460922
-0.000122914
1.72767e-06
-0.000468071
-0.000301437
-2.10401e-06
-0.000411872
-0.000477975
-4.14856e-06
-0.00102361
-3.99999e-05
-3.62535e-05
0.000331842
-1.4739e-05
-0.000107097
0.000401497
-6.82631e-06
-0.000156788
0.000359
-4.94523e-06
-0.00019613
0.000310688
-7.69988e-07
-0.000223089
0.000263053
1.06423e-06
-0.000241291
0.000219467
2.15775e-06
-0.000253907
0.000181658
2.61095e-06
-0.000263312
0.000149024
2.69284e-06
-0.000271236
0.000120993
2.61134e-06
-0.00027886
9.67409e-05
2.4992e-06
-0.000287765
7.62297e-05
2.47666e-06
-0.000299135
5.8028e-05
2.64046e-06
-0.000317927
4.49953e-05
3.1718e-06
-0.000346511
3.06101e-05
4.28974e-06
-0.000399335
2.81153e-05
6.29271e-06
-0.000473089
3.16862e-07
9.81854e-06
-0.000596852
-1.60387e-05
1.68881e-05
-0.000657969
-0.00026102
2.07001e-05
-0.000605742
-0.000562173
3.19701e-05
-0.00159126
-3.80907e-05
-0.000134649
0.000491748
-2.52573e-05
-0.000169538
0.000459278
-2.28917e-05
-0.000203192
0.000404914
-1.22599e-05
-0.000234271
0.000348016
-6.24953e-06
-0.000251774
0.000280833
-2.77608e-07
-0.000262373
0.000227323
2.74403e-06
-0.000268447
0.000183324
4.40693e-06
-0.000271738
0.000147371
4.94372e-06
-0.0002742
0.000118561
4.89508e-06
-0.000277391
9.53479e-05
4.58339e-06
-0.000284095
7.86107e-05
4.32357e-06
-0.000295436
6.51285e-05
4.24018e-06
-0.000317182
6.17273e-05
5.01414e-06
-0.000350294
5.66717e-05
7.04981e-06
-0.00041141
7.62303e-05
1.30015e-05
-0.000491471
5.58888e-05
2.44887e-05
-0.000600267
4.29209e-05
4.98363e-05
-0.000664053
-0.000267762
7.05288e-05
-0.000516102
-0.000809863
9.97385e-05
-0.00206751
-3.98528e-05
-0.000390817
0.000937592
-5.50274e-05
-0.000363732
0.000439143
-6.94905e-06
-0.00031407
0.000352813
2.43863e-06
-0.000245496
0.000261539
1.79037e-05
-0.000180357
0.000194632
2.10623e-05
-0.000122029
0.000147336
2.16589e-05
-7.27465e-05
0.000114232
1.98102e-05
-3.25197e-05
9.0068e-05
1.70767e-05
-3.35404e-07
7.20284e-05
1.43478e-05
2.51219e-05
5.79108e-05
1.19798e-05
4.59446e-05
4.73948e-05
1.03932e-05
6.22022e-05
3.94854e-05
9.3856e-06
8.06185e-05
3.32804e-05
1.00306e-05
9.13716e-05
3.30217e-05
1.28969e-05
0.000123422
2.314e-05
2.10405e-05
0.000119849
2.13768e-05
3.80849e-05
0.000161985
-7.4226e-05
7.50108e-05
6.44411e-05
-0.000291018
0.000120799
5.55764e-05
-0.000907228
0.000106229
-0.00190334
-0.000108593
0.00101077
-7.31799e-05
0.00150511
-5.51905e-05
0.00190252
-4.46042e-05
0.00218851
-2.44469e-05
0.00239047
-7.32558e-06
0.00253439
3.41041e-06
0.00263876
9.86049e-06
0.00271615
1.26809e-05
0.00277452
1.36572e-05
0.00282063
1.18037e-05
0.00285596
1.20585e-05
0.00288786
7.58903e-06
0.00291032
1.08168e-05
0.00293729
6.05986e-06
0.00294895
1.14716e-05
0.00294876
2.15738e-05
0.0028514
2.3128e-05
0.00250051
5.98714e-05
0.00158199
1.12998e-05
-0.000321358
-6.48123e-06
6.50532e-06
-9.65049e-08
-1.50227e-05
8.60737e-06
-2.52383e-08
-2.34358e-05
8.47835e-06
-3.55714e-09
-3.13394e-05
7.96675e-06
1.03948e-08
-3.85438e-05
7.26217e-06
1.49167e-08
-4.4881e-05
6.38841e-06
1.30896e-08
-5.01957e-05
5.35874e-06
6.2756e-09
-5.43462e-05
4.18772e-06
-5.50514e-09
-5.72072e-05
2.89185e-06
-2.22699e-08
-5.8672e-05
1.49006e-06
-4.26262e-08
-5.86586e-05
3.43299e-09
-6.55054e-08
-5.7107e-05
-1.5415e-06
-9.18483e-08
-5.39948e-05
-3.10881e-06
-1.20205e-07
-4.93414e-05
-4.65672e-06
-1.48984e-07
-4.32152e-05
-6.13615e-06
-1.76058e-07
-3.57412e-05
-7.49042e-06
-1.98543e-07
-2.71063e-05
-8.65652e-06
-2.12313e-07
-1.75763e-05
-9.55331e-06
-2.1111e-07
-7.68053e-06
-9.91677e-06
-1.95837e-07
-7.65599e-06
-9.64686e-08
-8.88428e-06
1.53738e-05
-2.00609e-07
-2.02025e-05
1.9956e-05
-1.3008e-07
-3.13194e-05
1.96273e-05
-1.03128e-07
-4.17418e-05
1.8422e-05
-7.97342e-08
-5.12148e-05
1.67659e-05
-6.43492e-08
-5.95157e-05
1.47176e-05
-5.46583e-08
-6.64428e-05
1.23121e-05
-4.95262e-08
-7.18164e-05
9.58642e-06
-4.86322e-08
-7.54808e-05
6.58056e-06
-5.19939e-08
-7.73033e-05
3.33645e-06
-5.97362e-08
-7.72013e-05
-7.44346e-08
-7.17695e-08
-7.50857e-05
-3.63377e-06
-8.69862e-08
-7.09436e-05
-7.22794e-06
-1.05338e-07
-6.48055e-05
-1.07724e-05
-1.25186e-07
-5.67624e-05
-1.41578e-05
-1.44372e-07
-4.69769e-05
-1.7256e-05
-1.59843e-07
-3.56906e-05
-1.99241e-05
-1.67067e-07
-2.32467e-05
-2.19768e-05
-1.59196e-07
-1.03169e-05
-2.28219e-05
-1.38132e-07
-1.79022e-05
-2.93048e-08
-9.46272e-06
2.48174e-05
-2.46896e-07
-2.15103e-05
3.20334e-05
-1.76476e-07
-3.33342e-05
3.14826e-05
-1.46615e-07
-4.44166e-05
2.95363e-05
-1.18754e-07
-5.44913e-05
2.68704e-05
-9.92827e-08
-6.33261e-05
2.358e-05
-8.52434e-08
-7.07114e-05
1.97236e-05
-7.55765e-08
-7.64612e-05
1.53613e-05
-7.00042e-08
-8.04138e-05
1.05577e-05
-6.87168e-08
-8.24367e-05
5.38388e-06
-7.18204e-08
-8.24155e-05
-7.0549e-08
-7.95111e-08
-8.02624e-05
-5.76145e-06
-9.17872e-08
-7.59521e-05
-1.15123e-05
-1.07589e-07
-6.95004e-05
-1.71979e-05
-1.25554e-07
-6.09858e-05
-2.26464e-05
-1.43465e-07
-5.05643e-05
-2.76523e-05
-1.5809e-07
-3.8482e-05
-3.19816e-05
-1.64516e-07
-2.51024e-05
-3.53289e-05
-1.55218e-07
-1.11533e-05
-3.67384e-05
-1.32314e-07
-2.89741e-05
-1.62952e-08
-1.00336e-05
3.48331e-05
-2.96956e-07
-2.28243e-05
4.48585e-05
-2.25918e-07
-3.53756e-05
4.40697e-05
-1.9305e-07
-4.71447e-05
4.13411e-05
-1.61009e-07
-5.78551e-05
3.76136e-05
-1.37192e-07
-6.72678e-05
3.30226e-05
-1.18622e-07
-7.5168e-05
2.76515e-05
-1.04383e-07
-8.13645e-05
2.1584e-05
-9.44996e-08
-8.56884e-05
1.49071e-05
-8.92659e-08
-8.79929e-05
7.71394e-06
-8.89033e-08
-8.81664e-05
1.29431e-07
-9.31991e-08
-8.60807e-05
-7.82034e-06
-1.04377e-07
-8.16874e-05
-1.58775e-05
-1.19304e-07
-7.49761e-05
-2.38802e-05
-1.37179e-07
-6.59977e-05
-3.1595e-05
-1.55874e-07
-5.48875e-05
-3.87325e-05
-1.71841e-07
-4.1887e-05
-4.49514e-05
-1.79512e-07
-2.73837e-05
-4.97974e-05
-1.70215e-07
-1.21842e-05
-5.18964e-05
-1.46041e-07
-4.10636e-05
-1.96249e-08
-1.08114e-05
4.56312e-05
-3.53472e-07
-2.46099e-05
5.87012e-05
-2.8042e-07
-3.81478e-05
5.76522e-05
-2.43895e-07
-5.08461e-05
5.40828e-05
-2.07102e-07
-6.2415e-05
4.92218e-05
-1.78631e-07
-7.26079e-05
4.32504e-05
-1.55517e-07
-8.12054e-05
3.62801e-05
-1.36996e-07
-8.80119e-05
2.84189e-05
-1.23281e-07
-9.28524e-05
1.97742e-05
-1.14879e-07
-9.55697e-05
1.0457e-05
-1.12274e-07
-9.60223e-05
6.07793e-07
-1.15902e-07
-9.40711e-05
-9.74468e-06
-1.26369e-07
-8.96163e-05
-2.03036e-05
-1.42358e-07
-8.26013e-05
-3.08645e-05
-1.62795e-07
-7.30311e-05
-4.11324e-05
-1.85347e-07
-6.10019e-05
-5.07272e-05
-2.05954e-07
-4.67386e-05
-5.91779e-05
-2.17992e-07
-3.0655e-05
-6.58381e-05
-2.10865e-07
-1.36734e-05
-6.88261e-05
-1.86099e-07
-5.46242e-05
-4.45843e-08
-1.18301e-05
5.74552e-05
-4.23453e-07
-2.69436e-05
7.38726e-05
-3.47184e-07
-4.17637e-05
7.25292e-05
-3.05773e-07
-5.56632e-05
6.80362e-05
-2.62723e-07
-6.83363e-05
6.19425e-05
-2.28227e-07
-7.95292e-05
5.44842e-05
-1.99399e-07
-8.90201e-05
4.58061e-05
-1.75719e-07
-9.66127e-05
3.60419e-05
-1.57661e-07
-0.000102128
2.53169e-05
-1.45996e-07
-0.000105398
1.37523e-05
-1.41511e-07
-0.000106259
1.4932e-06
-1.44958e-07
-0.000104537
-1.14407e-05
-1.5646e-07
-0.000100075
-2.47383e-05
-1.75586e-07
-9.27445e-05
-3.81633e-05
-2.01444e-07
-8.24763e-05
-5.13652e-05
-2.31527e-07
-6.92962e-05
-6.38679e-05
-2.61154e-07
-5.33855e-05
-7.50443e-05
-2.82165e-07
-3.51763e-05
-8.39933e-05
-2.80953e-07
-1.57498e-05
-8.8186e-05
-2.5753e-07
-7.02358e-05
-9.50266e-08
-1.31154e-05
7.05743e-05
-5.14251e-07
-2.98835e-05
9.07161e-05
-4.33756e-07
-4.63065e-05
8.90247e-05
-3.85423e-07
-6.1696e-05
8.34926e-05
-3.33445e-07
-7.57285e-05
7.60324e-05
-2.90273e-07
-8.81456e-05
6.69488e-05
-2.53286e-07
-9.87292e-05
5.6428e-05
-2.2238e-07
-0.000107289
4.46329e-05
-1.98398e-07
-0.00011365
3.17035e-05
-1.82436e-07
-0.000117638
1.77623e-05
-1.75585e-07
-0.000119067
2.94291e-06
-1.7883e-07
-0.000117724
-1.27624e-05
-1.92991e-07
-0.000113373
-2.90645e-05
-2.17652e-07
-0.000105788
-4.5718e-05
-2.52563e-07
-9.47785e-05
-6.23379e-05
-2.95299e-07
-8.02491e-05
-7.8353e-05
-3.40579e-07
-6.22855e-05
-9.29542e-05
-3.78192e-07
-4.13058e-05
-0.000104905
-3.89978e-07
-1.8601e-05
-0.000110804
-3.72401e-07
-8.86637e-05
-1.82399e-07
-1.47034e-05
8.52947e-05
-6.34879e-07
-3.35078e-05
0.000109619
-5.49163e-07
-5.18859e-05
0.000107495
-4.90565e-07
-6.90725e-05
0.000100762
-4.25243e-07
-8.47263e-05
9.17547e-05
-3.6892e-07
-9.85908e-05
8.08669e-05
-3.19603e-07
-0.000110462
6.83394e-05
-2.77889e-07
-0.000120169
5.43693e-05
-2.45156e-07
-0.000127554
3.91088e-05
-2.22896e-07
-0.000132447
2.26703e-05
-2.12551e-07
-0.000134648
5.15563e-06
-2.15521e-07
-0.000133902
-1.34964e-05
-2.33421e-07
-0.000129877
-3.30726e-05
-2.6627e-07
-0.000122212
-5.3359e-05
-3.14975e-07
-0.000110532
-7.39835e-05
-3.77745e-07
-9.4535e-05
-9.4303e-05
-4.49e-07
-7.41172e-05
-0.000113309
-5.16125e-07
-4.95976e-05
-0.000129339
-5.54405e-07
-2.25354e-05
-0.000137752
-5.52293e-07
-0.000110972
-3.29283e-07
-1.66464e-05
0.000101977
-7.98079e-07
-3.79277e-05
0.000131029
-7.05851e-07
-5.86537e-05
0.000128339
-6.31365e-07
-7.7964e-05
0.000120174
-5.45417e-07
-9.55028e-05
0.000109374
-4.68579e-07
-0.000111027
9.64497e-05
-4.00166e-07
-0.000124364
8.17157e-05
-3.41922e-07
-0.000135384
6.54125e-05
-2.95931e-07
-0.000143969
4.77026e-05
-2.64087e-07
-0.000149973
2.8675e-05
-2.48184e-07
-0.000153196
8.37389e-06
-2.5017e-07
-0.000153351
-1.3346e-05
-2.72573e-07
-0.000149999
-3.64257e-05
-3.16469e-07
-0.000142601
-6.07477e-05
-3.84965e-07
-0.000130518
-8.60434e-05
-4.78163e-07
-0.000113103
-0.000111676
-5.91345e-07
-8.98982e-05
-0.000136447
-7.09711e-07
-6.09289e-05
-0.000158207
-8.00224e-07
-2.80799e-05
-0.000170457
-8.33518e-07
-0.000138762
-5.78399e-07
-1.90236e-05
0.000121063
-1.02317e-06
-4.33042e-05
0.000155479
-9.22119e-07
-6.68234e-05
0.000152008
-8.21999e-07
-8.86029e-05
0.000142079
-7.0325e-07
-0.000108282
0.000129147
-5.93817e-07
-0.00012565
0.000113879
-4.95538e-07
-0.000140595
9.66936e-05
-4.11919e-07
-0.00015306
7.78861e-05
-3.45835e-07
-0.000162997
5.76293e-05
-2.99418e-07
-0.000170321
3.59749e-05
-2.74598e-07
-0.00017486
1.288e-05
-2.738e-07
-0.000176324
-1.19189e-05
-3.00723e-07
-0.000174161
-3.86204e-05
-3.58213e-07
-0.00016763
-6.73006e-05
-4.53348e-07
-0.000155731
-9.79472e-05
-5.90648e-07
-0.000137281
-0.000130105
-7.69405e-07
-0.000111174
-0.000162498
-9.74784e-07
-7.6731e-05
-0.000192544
-1.16625e-06
-3.6199e-05
-0.000210816
-1.27468e-06
-0.000174609
-1.00681e-06
-2.19578e-05
0.000143121
-1.34099e-06
-4.98749e-05
0.000183619
-1.22602e-06
-7.67001e-05
0.000179024
-1.08284e-06
-0.000101309
0.00016684
-9.10545e-07
-0.000123359
0.000151302
-7.48601e-07
-0.000142703
0.000133282
-6.03468e-07
-0.00015933
0.000113339
-4.81084e-07
-0.000173302
9.18413e-05
-3.84974e-07
-0.00018469
6.89742e-05
-3.16894e-07
-0.000193518
4.4739e-05
-2.78177e-07
-0.000199692
1.8976e-05
-2.7117e-07
-0.000202972
-8.72659e-06
-3.00903e-07
-0.000202728
-3.89517e-05
-3.72784e-07
-0.000198013
-7.2095e-05
-5.00556e-07
-0.000187386
-0.000108637
-6.97557e-07
-0.000168894
-0.000148632
-9.7401e-07
-0.000140323
-0.000191061
-1.32262e-06
-9.9421e-05
-0.000233376
-1.70602e-06
-4.87884e-05
-0.000261277
-1.96886e-06
-0.00022303
-1.75605e-06
-2.56517e-05
0.000168923
-1.80137e-06
-5.80065e-05
0.000216267
-1.6603e-06
-8.87325e-05
0.000209993
-1.44286e-06
-0.000116532
0.000194822
-1.18143e-06
-0.00014113
0.000176014
-9.34072e-07
-0.000162489
0.000154689
-7.15481e-07
-0.000180759
0.0001316
-5.34588e-07
-0.000196183
0.000107208
-3.94807e-07
-0.000209018
8.17134e-05
-2.95851e-07
-0.000219462
5.50588e-05
-2.36552e-07
-0.000227579
2.69471e-05
-2.17366e-07
-0.000233238
-3.22839e-06
-2.43279e-07
-0.000235876
-3.64873e-05
-3.26675e-07
-0.000234378
-7.37696e-05
-4.88407e-07
-0.000226858
-0.00011633
-7.57391e-07
-0.00021037
-0.000165274
-1.16824e-06
-0.000181018
-0.000220531
-1.74066e-06
-0.000133232
-0.00028122
-2.47993e-06
-7.01248e-05
-0.000324301
-3.05533e-06
-0.000292922
-3.16552e-06
-3.03946e-05
0.000199524
-2.50208e-06
-6.8209e-05
0.000254457
-2.30065e-06
-0.000103551
0.000245637
-1.94745e-06
-0.000134896
0.000226382
-1.53174e-06
-0.00016213
0.000203364
-1.14333e-06
-0.000185395
0.000177977
-8.09894e-07
-0.000205095
0.000151243
-5.42466e-07
-0.000221733
0.000123725
-3.41815e-07
-0.000235831
9.56398e-05
-2.01651e-07
-0.000247841
6.68585e-05
-1.14592e-07
-0.000258065
3.69295e-05
-7.33638e-08
-0.00026677
5.21009e-06
-7.44853e-08
-0.000273416
-3.01499e-05
-1.69155e-07
-0.000277026
-7.04978e-05
-3.50147e-07
-0.000275469
-0.00011825
-6.84821e-07
-0.000264698
-0.000176422
-1.25277e-06
-0.000238682
-0.000246926
-2.1416e-06
-0.000185487
-0.000334792
-3.49926e-06
-0.000108389
-0.000401634
-4.6846e-06
-0.000401662
-5.92298e-06
-3.72251e-05
0.000237041
-3.52507e-06
-8.17534e-05
0.000299469
-3.22897e-06
-0.000122309
0.000286569
-2.64272e-06
-0.000157357
0.000261676
-1.96822e-06
-0.00018711
0.000233228
-1.34862e-06
-0.00021193
0.000202779
-8.37749e-07
-0.000232582
0.00017177
-4.46175e-07
-0.000249931
0.000140866
-1.66831e-07
-0.000264857
0.000110295
1.96768e-08
-0.000278196
7.98643e-05
1.4697e-07
-0.000290736
4.90828e-05
2.12387e-07
-0.000302555
1.65889e-05
2.16755e-07
-0.00031423
-1.89257e-05
2.16272e-07
-0.000325263
-5.99794e-05
5.87105e-08
-0.000333742
-0.000110371
-2.83222e-07
-0.000334674
-0.000176183
-9.57531e-07
-0.000321074
-0.000261308
-2.19913e-06
-0.000268726
-0.000388119
-4.5545e-06
-0.000181526
-0.000489766
-6.85555e-06
-0.000585349
-1.14062e-05
-4.32021e-05
0.000280387
-5.48826e-06
-9.75958e-05
0.000354417
-4.68288e-06
-0.000145398
0.000334796
-3.65444e-06
-0.000184965
0.000301532
-2.4584e-06
-0.000217074
0.000265449
-1.45579e-06
-0.000242767
0.000228409
-6.83331e-07
-0.000263512
0.000192313
-1.29156e-07
-0.000280681
0.000157716
2.53953e-07
-0.000295566
0.000124763
5.02925e-07
-0.0003093
9.31019e-05
6.62034e-07
-0.000322906
6.21225e-05
7.78861e-07
-0.000337958
3.09958e-05
8.79914e-07
-0.00035642
-1.2013e-06
9.10109e-07
-0.000377152
-4.02223e-05
8.90083e-07
-0.000401367
-8.7301e-05
7.45814e-07
-0.000422912
-0.000155901
1.87047e-07
-0.000439628
-0.000246016
-1.13508e-06
-0.000405629
-0.000423922
-4.72238e-06
-0.000320547
-0.000576594
-8.61466e-06
-0.000911946
-2.10523e-05
-7.03252e-05
0.000350862
-7.9064e-06
-0.00012744
0.000411865
-7.25604e-06
-0.000179268
0.000387048
-5.14554e-06
-0.000219946
0.000342438
-3.26103e-06
-0.000252782
0.000298366
-1.54238e-06
-0.000278224
0.000253751
-2.81884e-07
-0.000298017
0.000211823
5.74598e-07
-0.000313896
0.000173175
1.08512e-06
-0.000327782
0.000138108
1.36328e-06
-0.000341631
0.000106301
1.50438e-06
-0.000357441
7.71491e-05
1.58373e-06
-0.00037663
4.92428e-05
1.67316e-06
-0.000400377
2.13795e-05
1.87846e-06
-0.000431713
-1.01069e-05
2.30208e-06
-0.000475357
-4.49991e-05
2.74902e-06
-0.000527192
-0.000105494
3.01789e-06
-0.000589372
-0.000184952
2.84351e-06
-0.000602212
-0.000412322
-8.64222e-07
-0.000523224
-0.000654921
-4.80951e-06
-0.00144427
-3.09011e-05
-4.89673e-05
0.000398532
-1.34414e-05
-0.000145817
0.000509948
-8.05977e-06
-0.000214465
0.000456571
-5.82026e-06
-0.000266144
0.000395202
-1.85556e-06
-0.000300642
0.000333527
4.02021e-07
-0.000323045
0.000276493
1.81851e-06
-0.000337959
0.000226762
2.58672e-06
-0.00034877
0.00018375
2.92792e-06
-0.000357914
0.000146818
3.04591e-06
-0.000367051
0.000114841
3.09556e-06
-0.000378243
8.75926e-05
3.22482e-06
-0.000393039
6.31161e-05
3.56402e-06
-0.000417316
4.45283e-05
4.29974e-06
-0.000453374
2.46287e-05
5.61245e-06
-0.000518224
1.83363e-05
7.80727e-06
-0.000605266
-1.97356e-05
1.11012e-05
-0.000743233
-4.58911e-05
1.57946e-05
-0.000801674
-0.000349774
1.65939e-05
-0.000667897
-0.000775295
1.8567e-05
-0.00211736
-3.28913e-05
-0.000146394
0.000541315
-2.16469e-05
-0.000209207
0.000569653
-1.97832e-05
-0.000266362
0.00051304
-1.15736e-05
-0.000315162
0.000443671
-5.91898e-06
-0.000340253
0.000359009
-6.68299e-07
-0.000353608
0.000290239
2.35303e-06
-0.000359395
0.000232852
4.10313e-06
-0.000361171
0.000185627
4.84261e-06
-0.000362088
0.000147613
5.01762e-06
-0.000364417
0.000116815
4.93861e-06
-0.000371798
9.43823e-05
4.91555e-06
-0.000385214
7.56282e-05
5.14398e-06
-0.000411632
6.97954e-05
6.1651e-06
-0.000449842
6.15549e-05
8.33313e-06
-0.000515955
8.40885e-05
1.3362e-05
-0.000593689
6.08006e-05
2.16871e-05
-0.000673215
4.48891e-05
3.85822e-05
-0.000687774
-0.000315638
5.09502e-05
-0.00039386
-0.0010321
6.26299e-05
-0.00251036
-4.0717e-05
-0.000548836
0.00107357
-3.84506e-05
-0.000537637
0.000561146
-9.64091e-06
-0.000487598
0.000468023
-2.58369e-06
-0.000391993
0.00035637
9.59959e-06
-0.0002967
0.000271567
1.32116e-05
-0.00020751
0.00020777
1.49385e-05
-0.000129984
0.000160543
1.45941e-05
-6.5503e-05
0.000124927
1.32954e-05
-1.35903e-05
9.83005e-05
1.17473e-05
2.77021e-05
7.72338e-05
1.02682e-05
6.0964e-05
6.21698e-05
9.34378e-06
8.66308e-05
5.04407e-05
8.9063e-06
0.000114927
4.15915e-05
9.93845e-06
0.000135527
4.11053e-05
1.27468e-05
0.000191964
2.88783e-05
1.98138e-05
0.0002264
3.1263e-05
3.3186e-05
0.000356496
-6.89514e-05
5.87556e-05
0.00038728
-0.000314441
8.88181e-05
0.000401158
-0.00101451
7.47647e-05
-0.00212894
-8.88546e-05
0.00105296
-5.25687e-05
0.00160246
-4.35427e-05
0.00206255
-3.66732e-05
0.00241758
-2.31004e-05
0.00269197
-1.01561e-05
0.00290348
-3.29639e-07
0.00306809
5.8e-06
0.00319659
9.10742e-06
0.00329782
1.07238e-05
0.00337691
9.9456e-06
0.00344073
1.04108e-05
0.00349137
7.38575e-06
0.00353404
9.74557e-06
0.0035744
6.80003e-06
0.00360429
1.04666e-05
0.00363946
1.76592e-05
0.00357483
1.88118e-05
0.00328134
3.89207e-05
0.00225593
2.2191e-05
-0.000194365
-6.61615e-06
6.62467e-06
-1.05024e-07
-1.53503e-05
8.78962e-06
-8.06805e-08
-2.39491e-05
8.65977e-06
-6.45462e-08
-3.20238e-05
8.13558e-06
-5.0458e-08