/*--------------------------------*- C++ -*----------------------------------*\
  =========                 |
  \\      /  F ield         | OpenFOAM: The Open Source CFD Toolbox
   \\    /   O peration     | Website:  https://openfoam.org
    \\  /    A nd           | Version:  9
     \\/     M anipulation  |
\*---------------------------------------------------------------------------*/
FoamFile
{
    format      ascii;
    class       volVectorField;
    location    "3";
    object      U;
}
// * * * * * * * * * * * * * * * * * * * * * * * * * * * * * * * * * * * * * //

dimensions      [0 1 -1 0 0 0 0];

internalField   nonuniform List<vector> 
8000
(
(-0.000217149 0.000218705 -4.55582e-06)
(-0.00080219 0.000289807 5.05994e-06)
(-0.00149379 0.000285967 6.66997e-06)
(-0.0021269 0.000269889 7.44416e-06)
(-0.00271992 0.000247556 7.19365e-06)
(-0.00325412 0.00021959 6.36157e-06)
(-0.00371635 0.000186272 5.11944e-06)
(-0.00409464 0.000147943 3.52236e-06)
(-0.00437803 0.000105033 1.59478e-06)
(-0.00455682 5.80986e-05 -6.39908e-07)
(-0.00462286 8.09296e-06 -3.06048e-06)
(-0.00456957 -4.47292e-05 -5.66415e-06)
(-0.00439283 -9.87873e-05 -8.4187e-06)
(-0.00409181 -0.000152593 -1.12024e-05)
(-0.00366933 -0.000204358 -1.38554e-05)
(-0.00313265 -0.000251999 -1.61469e-05)
(-0.002494 -0.000293205 -1.76916e-05)
(-0.00177803 -0.000325108 -1.77759e-05)
(-0.000972165 -0.000339123 -1.63757e-05)
(-0.000269608 -0.000263683 -4.50733e-06)
(-0.000297201 0.000815212 -1.61902e-05)
(-0.00106987 0.00105188 -6.35834e-06)
(-0.00196658 0.00103546 -4.14583e-06)
(-0.00278905 0.000975055 -2.38978e-06)
(-0.00355703 0.000891519 -1.50689e-06)
(-0.00424657 0.000787433 -1.05849e-06)
(-0.00484079 0.000664237 -8.96808e-07)
(-0.00532461 0.000523518 -9.9065e-07)
(-0.00568441 0.000367116 -1.34397e-06)
(-0.00590816 0.000197165 -1.97391e-06)
(-0.00598672 1.6044e-05 -2.85597e-06)
(-0.00591223 -0.00017292 -4.02191e-06)
(-0.00567936 -0.00036522 -5.3857e-06)
(-0.00528787 -0.000555855 -6.89016e-06)
(-0.00474159 -0.000738706 -8.39745e-06)
(-0.00404979 -0.000906608 -9.68224e-06)
(-0.00322803 -0.00105156 -1.03351e-05)
(-0.00230692 -0.00116358 -9.5828e-06)
(-0.0012738 -0.00121303 -7.53899e-06)
(-0.000360298 -0.000962346 5.25196e-06)
(-0.000315228 0.00155843 -1.9946e-05)
(-0.00113525 0.00198481 -9.87403e-06)
(-0.00208664 0.00195135 -7.44999e-06)
(-0.00295867 0.0018357 -5.38362e-06)
(-0.00377316 0.00167629 -4.18234e-06)
(-0.004505 0.00147825 -3.3895e-06)
(-0.00513671 0.00124462 -2.85999e-06)
(-0.00565263 0.000978645 -2.57146e-06)
(-0.00603864 0.000683942 -2.53814e-06)
(-0.00628258 0.000364593 -2.76871e-06)
(-0.0063738 2.51798e-05 -3.28475e-06)
(-0.00630299 -0.000328125 -4.12055e-06)
(-0.00606449 -0.000687803 -5.21261e-06)
(-0.0056568 -0.0010445 -6.49301e-06)
(-0.00508245 -0.00138693 -7.81617e-06)
(-0.00434972 -0.00170185 -8.94784e-06)
(-0.00347385 -0.00197428 -9.4506e-06)
(-0.00248711 -0.00218535 -8.48528e-06)
(-0.00137547 -0.00228015 -6.19572e-06)
(-0.000389496 -0.00182879 7.42171e-06)
(-0.000333061 0.00231345 -2.34728e-05)
(-0.00120164 0.00293699 -1.30118e-05)
(-0.00221058 0.00288623 -1.04051e-05)
(-0.00313515 0.00271488 -8.08088e-06)
(-0.00399965 0.00247934 -6.62981e-06)
(-0.00477796 0.00218721 -5.57729e-06)
(-0.00545211 0.00184311 -4.77895e-06)
(-0.00600601 0.00145183 -4.21946e-06)
(-0.00642506 0.00101852 -3.91977e-06)
(-0.00669613 0.000548961 -3.89519e-06)
(-0.00680799 5.00612e-05 -4.11608e-06)
(-0.00674992 -0.00047036 -4.87746e-06)
(-0.00651351 -0.00100209 -5.84516e-06)
(-0.00609496 -0.00153172 -7.03072e-06)
(-0.00549451 -0.0020427 -8.31279e-06)
(-0.00471827 -0.00251527 -9.43657e-06)
(-0.00378009 -0.00292656 -9.91803e-06)
(-0.00271391 -0.00324734 -8.81392e-06)
(-0.0015044 -0.00339485 -6.27676e-06)
(-0.000426659 -0.00273362 8.56957e-06)
(-0.000357507 0.00312332 -2.71026e-05)
(-0.00129218 0.00395948 -1.60054e-05)
(-0.00237934 0.00389034 -1.32068e-05)
(-0.00337532 0.0036599 -1.06415e-05)
(-0.00430762 0.00334387 -8.9924e-06)
(-0.00514887 0.0029527 -7.75707e-06)
(-0.00588056 0.0024927 -6.78786e-06)
(-0.00648625 0.00197021 -6.07378e-06)
(-0.00695086 0.00139184 -5.6445e-06)
(-0.00726046 0.000764648 -5.53544e-06)
(-0.00740236 9.67135e-05 -5.78487e-06)
(-0.00736398 -0.000602049 -6.44519e-06)
(-0.00713408 -0.00131935 -7.42819e-06)
(-0.00670487 -0.00203846 -8.70283e-06)
(-0.00607254 -0.00273766 -1.01367e-05)
(-0.00523947 -0.00338993 -1.14478e-05)
(-0.00421665 -0.00396296 -1.20771e-05)
(-0.00303954 -0.00441427 -1.09178e-05)
(-0.00169104 -0.00462793 -8.09701e-06)
(-0.000480966 -0.00373851 8.61394e-06)
(-0.00038949 0.00400355 -3.14682e-05)
(-0.00141044 0.00507234 -1.95012e-05)
(-0.00259937 0.0049833 -1.64703e-05)
(-0.00368787 0.00468923 -1.36193e-05)
(-0.0047076 0.00428708 -1.17511e-05)
(-0.00562966 0.00379062 -1.03291e-05)
(-0.00643515 0.00320811 -9.20208e-06)
(-0.00710746 0.00254749 -8.3636e-06)
(-0.00763122 0.00181657 -7.85189e-06)
(-0.00799184 0.00102328 -7.71556e-06)
(-0.00817525 0.00017633 -8.00404e-06)
(-0.00816651 -0.000713768 -8.74595e-06)
(-0.0079504 -0.00163348 -9.88523e-06)
(-0.00751371 -0.00256347 -1.14146e-05)
(-0.0068464 -0.0034773 -1.31967e-05)
(-0.00594448 -0.00434008 -1.49232e-05)
(-0.00481348 -0.00510797 -1.5926e-05)
(-0.00348919 -0.00572116 -1.48518e-05)
(-0.00195145 -0.00602212 -1.17426e-05)
(-0.000557551 -0.00488166 7.5828e-06)
(-0.000429672 0.00497325 -3.70888e-05)
(-0.00155902 0.00629994 -2.40265e-05)
(-0.00287547 0.00618862 -2.06885e-05)
(-0.00407897 0.00582461 -1.74473e-05)
(-0.00520666 0.00532879 -1.52715e-05)
(-0.00622793 0.00471895 -1.35891e-05)
(-0.00712376 0.00400574 -1.22498e-05)
(-0.00787787 0.00319883 -1.12546e-05)
(-0.00847515 0.00230703 -1.06514e-05)
(-0.00890077 0.00133847 -1.05012e-05)
(-0.00913945 0.000301456 -1.08641e-05)
(-0.00917385 -0.000794138 -1.18032e-05)
(-0.00898384 -0.00193546 -1.32485e-05)
(-0.00854875 -0.00310226 -1.52408e-05)
(-0.00784926 -0.00426461 -1.7647e-05)
(-0.006871 -0.00537963 -2.01377e-05)
(-0.00560939 -0.00638954 -2.19034e-05)
(-0.00409724 -0.00721147 -2.12249e-05)
(-0.00230879 -0.00763299 -1.79226e-05)
(-0.00066421 -0.00621443 4.89826e-06)
(-0.000479008 0.00605442 -4.45104e-05)
(-0.00174157 0.00767019 -3.01137e-05)
(-0.00321406 0.00753271 -2.63417e-05)
(-0.00455673 0.00708991 -2.25264e-05)
(-0.00581374 0.00649018 -1.98712e-05)
(-0.00695278 0.00575647 -1.77759e-05)
(-0.00795533 0.00490252 -1.61007e-05)
(-0.00880624 0.00394005 -1.48591e-05)
(-0.00949166 0.00287863 -1.41122e-05)
(-0.00999748 0.00172588 -1.39363e-05)
(-0.0103079 0.000488319 -1.44145e-05)
(-0.0104035 -0.000826812 -1.5666e-05)
(-0.0102586 -0.00221001 -1.76037e-05)
(-0.00984292 -0.00364306 -2.03584e-05)
(-0.0091239 -0.00509535 -2.38267e-05)
(-0.00807053 -0.00651749 -2.76582e-05)
(-0.00666042 -0.00783547 -3.08978e-05)
(-0.00491565 -0.00893637 -3.13021e-05)
(-0.0028 -0.00953117 -2.81444e-05)
(-0.000814151 -0.0078066 -1.00787e-06)
(-0.000538991 0.00727257 -5.44875e-05)
(-0.00196339 0.00921513 -3.84791e-05)
(-0.00362424 0.00904514 -3.4047e-05)
(-0.00513225 0.00851094 -2.93395e-05)
(-0.00654068 0.00779328 -2.58986e-05)
(-0.00781569 0.00692196 -2.3118e-05)
(-0.00894028 0.00591498 -2.0885e-05)
(-0.00990187 0.00478662 -1.92324e-05)
(-0.0106894 0.00354717 -1.82365e-05)
(-0.0112912 0.00220284 -1.79956e-05)
(-0.0116922 0.000756681 -1.86326e-05)
(-0.0118723 -0.00078934 -2.03256e-05)
(-0.0118002 -0.00243296 -2.29976e-05)
(-0.0114342 -0.00416274 -2.69499e-05)
(-0.0107238 -0.00595272 -3.21754e-05)
(-0.00961257 -0.00775151 -3.8343e-05)
(-0.00804772 -0.00946904 -4.43484e-05)
(-0.00602401 -0.010955 -4.73048e-05)
(-0.00348639 -0.0118077 -4.51065e-05)
(-0.00103136 -0.00975705 -1.26895e-05)
(-0.000612062 0.00865856 -6.8193e-05)
(-0.00223252 0.0109727 -5.0205e-05)
(-0.00411919 0.0107598 -4.46866e-05)
(-0.00582115 0.0101158 -3.85233e-05)
(-0.0074034 0.0092606 -3.37549e-05)
(-0.00883123 0.00823336 -2.98195e-05)
(-0.0100908 0.00705799 -2.66541e-05)
(-0.0111742 0.00575234 -2.43134e-05)
(-0.0120756 0.00432746 -2.28846e-05)
(-0.0127881 0.00278736 -2.24869e-05)
(-0.0133002 0.00112967 -2.32962e-05)
(-0.0135932 -0.00065221 -2.55916e-05)
(-0.0136321 -0.00256852 -2.9313e-05)
(-0.0133628 -0.00462171 -3.50768e-05)
(-0.0127128 -0.00679969 -4.31259e-05)
(-0.0115887 -0.00905896 -5.33231e-05)
(-0.009889 -0.0112995 -6.44404e-05)
(-0.00754595 -0.0133328 -7.30743e-05)
(-0.00447281 -0.0145806 -7.38e-05)
(-0.00136097 -0.012214 -3.6507e-05)
(-0.000702446 0.0102521 -8.76043e-05)
(-0.00256155 0.0129896 -6.7048e-05)
(-0.00471843 0.0127163 -5.95896e-05)
(-0.00664588 0.0119349 -5.09349e-05)
(-0.00842385 0.0109144 -4.38724e-05)
(-0.0100185 0.00970622 -3.7982e-05)
(-0.0114215 0.00834279 -3.32683e-05)
(-0.0126326 0.00684694 -2.97975e-05)
(-0.0136546 0.00523097 -2.76442e-05)
(-0.0144892 0.00349598 -2.69272e-05)
(-0.015132 0.0016321 -2.78756e-05)
(-0.0155706 -0.000380036 -3.09384e-05)
(-0.0157698 -0.00256701 -3.60528e-05)
(-0.0156654 -0.0049576 -4.44247e-05)
(-0.0151613 -0.00756788 -5.68134e-05)
(-0.0141149 -0.0103809 -7.37263e-05)
(-0.012354 -0.0133036 -9.42411e-05)
(-0.00967645 -0.016133 -0.000115061)
(-0.0059466 -0.0180005 -0.000123261)
(-0.00189321 -0.015415 -8.73816e-05)
(-0.000818038 0.012103 -0.000116054)
(-0.00297137 0.0153224 -9.17903e-05)
(-0.00545193 0.0149612 -8.07243e-05)
(-0.00763951 0.0140012 -6.76705e-05)
(-0.00963297 0.0127753 -5.65821e-05)
(-0.0114031 0.0113511 -4.73813e-05)
(-0.0129503 0.00977357 -4.01339e-05)
(-0.0142863 0.00807234 -3.48722e-05)
(-0.0154268 0.00626185 -3.15749e-05)
(-0.0163872 0.00434004 -3.02738e-05)
(-0.0171764 0.00228834 -3.11646e-05)
(-0.0177926 7.14275e-05 -3.46269e-05)
(-0.0182099 -0.00236129 -4.17773e-05)
(-0.0183638 -0.00507844 -5.37415e-05)
(-0.0181362 -0.00814317 -7.23876e-05)
(-0.0173278 -0.0115979 -9.9854e-05)
(-0.0156834 -0.0153918 -0.000136915)
(-0.0127259 -0.0193871 -0.00018332)
(-0.00825717 -0.0222225 -0.000209779)
(-0.00281883 -0.0197827 -0.000199973)
(-0.000972479 0.014317 -0.000161687)
(-0.00349371 0.0180665 -0.000130403)
(-0.00636324 0.0175598 -0.000111616)
(-0.00885023 0.0163514 -9.01162e-05)
(-0.0110747 0.0148599 -7.17259e-05)
(-0.0130204 0.0131697 -5.69192e-05)
(-0.0147005 0.0113425 -4.56362e-05)
(-0.0161446 0.00941699 -3.76987e-05)
(-0.0173872 0.0074106 -3.27532e-05)
(-0.0184629 0.00531825 -3.05218e-05)
(-0.0194008 0.00311046 -3.08129e-05)
(-0.0202204 0.000729439 -3.32278e-05)
(-0.0209199 -0.00189988 -4.44288e-05)
(-0.0214475 -0.00487732 -6.03527e-05)
(-0.0216808 -0.00835704 -8.66825e-05)
(-0.0213688 -0.0124911 -0.000128817)
(-0.0201976 -0.0173345 -0.000192242)
(-0.0171624 -0.0230203 -0.000288674)
(-0.0121036 -0.027337 -0.000358379)
(-0.00460559 -0.0260856 -0.000452784)
(-0.00121475 0.0167714 -0.000228403)
(-0.0042235 0.0212381 -0.000187862)
(-0.00754201 0.0205458 -0.000155126)
(-0.0103598 0.0190134 -0.000118808)
(-0.0128153 0.0171754 -8.74316e-05)
(-0.0149206 0.0151477 -6.32948e-05)
(-0.0167032 0.013022 -4.58388e-05)
(-0.0182183 0.0108474 -3.4235e-05)
(-0.0195256 0.00864536 -2.72752e-05)
(-0.0206875 0.0064098 -2.41012e-05)
(-0.0217655 0.00411087 -2.47837e-05)
(-0.0228034 0.00169266 -3.01929e-05)
(-0.0238172 -0.000954154 -3.16935e-05)
(-0.0248219 -0.0040472 -4.99057e-05)
(-0.0257506 -0.00781446 -8.33033e-05)
(-0.0263161 -0.0125993 -0.000140876)
(-0.0262785 -0.0186089 -0.000238513)
(-0.0236857 -0.0268459 -0.000425944)
(-0.0188533 -0.0333215 -0.000585324)
(-0.00834794 -0.0357683 -0.00101995)
(-0.00139289 0.0207282 -0.000388507)
(-0.00498582 0.0252368 -0.000289452)
(-0.00901323 0.0241125 -0.000224591)
(-0.0122427 0.0219785 -0.000150855)
(-0.0149405 0.0196635 -9.5276e-05)
(-0.0171738 0.0172183 -5.66708e-05)
(-0.0190004 0.014745 -3.08885e-05)
(-0.0205206 0.0122957 -1.50763e-05)
(-0.021824 0.00989729 -6.00831e-06)
(-0.0229961 0.00753931 -1.65471e-06)
(-0.024116 0.00516879 -3.72543e-08)
(-0.0252825 0.00268492 -9.46858e-07)
(-0.0266549 -5.72484e-05 -1.19334e-05)
(-0.0283005 -0.00326782 -3.67586e-05)
(-0.0302203 -0.00720063 -6.39017e-05)
(-0.0321707 -0.0125048 -0.000117089)
(-0.0344876 -0.0195223 -0.000228248)
(-0.0333573 -0.0307063 -0.000525964)
(-0.0307797 -0.0399925 -0.000800988)
(-0.0161621 -0.0512737 -0.002096)
(-0.00279177 0.0231101 -0.000564752)
(-0.00738643 0.0303623 -0.000494859)
(-0.0112893 0.0284006 -0.000330227)
(-0.0148356 0.025853 -0.000211066)
(-0.017574 0.0227733 -0.000101512)
(-0.0198391 0.0196053 -2.91404e-05)
(-0.0216237 0.0165678 1.54722e-05)
(-0.0230622 0.0137346 3.72305e-05)
(-0.0242763 0.0111254 4.52106e-05)
(-0.0254088 0.00872208 4.50448e-05)
(-0.0266116 0.00649243 3.99451e-05)
(-0.0280197 0.00436923 3.17639e-05)
(-0.0297596 0.00228924 2.75753e-05)
(-0.0319584 2.72532e-05 5.52178e-05)
(-0.0349794 -0.00267064 7.27258e-05)
(-0.0386754 -0.00739132 8.23002e-05)
(-0.0444312 -0.0133575 8.97917e-05)
(-0.0462296 -0.029846 -0.000206768)
(-0.0497437 -0.0430019 -0.000340717)
(-0.0289104 -0.0782202 -0.00314153)
(-0.000984998 0.0343373 -0.00112526)
(-0.00673139 0.032924 -0.000477261)
(-0.0140222 0.0315515 -0.000337851)
(-0.0178713 0.027079 -3.08347e-05)
(-0.021163 0.0236865 0.000100385)
(-0.0233462 0.0203282 0.000168227)
(-0.0248166 0.0172278 0.000190479)
(-0.0258807 0.0143572 0.000187892)
(-0.0267205 0.0117349 0.000175746)
(-0.0274758 0.00935018 0.000162941)
(-0.0282753 0.00719177 0.000157444)
(-0.0292475 0.00517475 0.000165261)
(-0.0307021 0.00326181 0.000199357)
(-0.0328701 0.00105053 0.000271134)
(-0.0370775 -0.00148426 0.000415642)
(-0.0419534 -0.00633686 0.000681384)
(-0.0550176 -0.0127732 0.00123479)
(-0.061043 -0.0322415 0.00156205)
(-0.0757705 -0.0551876 0.00255012)
(-0.0383765 -0.127688 -0.00302457)
(-0.00746664 0.0297975 -0.00196901)
(-0.0181476 0.0502192 -0.00177923)
(-0.0169883 0.042175 -0.000903576)
(-0.0230008 0.0372706 -0.000444644)
(-0.0243486 0.0307 7.69388e-06)
(-0.0258515 0.0249617 0.000229469)
(-0.0265765 0.0201288 0.000341097)
(-0.0270021 0.0161732 0.000369239)
(-0.0272558 0.0129808 0.00035571)
(-0.0275093 0.0103893 0.000324216)
(-0.0279841 0.00841791 0.000297757)
(-0.0288059 0.00681318 0.000283436)
(-0.0304499 0.00616211 0.000332948)
(-0.0328181 0.00552408 0.000476353)
(-0.0379681 0.00768103 0.000929629)
(-0.0431614 0.00651741 0.00183684)
(-0.0579749 0.0103117 0.0039002)
(-0.0584971 -0.0174324 0.00563095)
(-0.0810261 -0.0529734 0.00801227)
(-0.0139149 -0.188485 -0.00346428)
(-0.0489155 0.0742688 -0.00453614)
(-0.0324397 0.0372838 -0.000423626)
(-0.0375916 0.0356769 0.000375036)
(-0.0269676 0.0289651 0.00159132)
(-0.0212234 0.0227622 0.00180624)
(-0.0147883 0.0183363 0.00179862)
(-0.00944279 0.0148833 0.00160581)
(-0.00501217 0.012056 0.00135543)
(-0.00147656 0.00977749 0.00111777)
(0.00143983 0.00793325 0.000916205)
(0.00357291 0.00666578 0.000783462)
(0.00573559 0.00558887 0.000695543)
(0.00667903 0.00552222 0.000739768)
(0.00976884 0.00499325 0.000954551)
(0.00800878 0.00635029 0.00160154)
(0.0178398 0.0032891 0.00297471)
(0.00403486 -0.00347913 0.00600045)
(0.0309763 -0.0413072 0.00975283)
(-0.0211406 -0.121662 0.00816151)
(0.0360827 -0.245712 -0.0101987)
(0.0938452 0.103151 -0.00607217)
(0.118656 0.0545269 -0.00450585)
(0.173517 0.0375992 -0.00356643)
(0.207683 0.0260019 -0.00185956)
(0.230606 0.0182075 -0.000460174)
(0.247275 0.0126992 0.000412401)
(0.259485 0.00911172 0.000882324)
(0.268445 0.00679352 0.00106028)
(0.274861 0.00524952 0.00109418)
(0.280317 0.0041271 0.000923178)
(0.283468 0.00320322 0.000919688)
(0.288544 0.00271655 0.000562854)
(0.287652 0.00151266 0.000817509)
(0.29661 0.00215638 0.000401027)
(0.287079 -0.0011504 0.00089393)
(0.30573 0.0017599 0.00162885)
(0.27465 -0.009014 0.00182559)
(0.297268 -0.0108809 0.00548815)
(0.186755 -0.0433128 0.000104042)
(0.154367 -0.105617 -0.0280095)
(-0.00028366 0.000282067 -9.35917e-06)
(-0.00104347 0.000380317 2.28283e-06)
(-0.00193658 0.000375283 4.66787e-06)
(-0.00275017 0.000353191 6.13989e-06)
(-0.00350867 0.000322675 6.25828e-06)
(-0.00418856 0.000284706 5.53176e-06)
(-0.00477356 0.000239763 4.17535e-06)
(-0.00524888 0.00018841 2.28362e-06)
(-0.00560115 0.000131316 -9.88443e-08)
(-0.00581873 6.92893e-05 -2.98458e-06)
(-0.00589218 3.50117e-06 -6.29792e-06)
(-0.00581431 -6.55353e-05 -9.9302e-06)
(-0.00558086 -0.000135748 -1.37849e-05)
(-0.00519165 -0.00020528 -1.76804e-05)
(-0.00465094 -0.000271877 -2.13671e-05)
(-0.00396824 -0.000332941 -2.44941e-05)
(-0.00315878 -0.000385593 -2.65166e-05)
(-0.0022525 -0.000426145 -2.65061e-05)
(-0.00123129 -0.000442507 -2.45199e-05)
(-0.000341032 -0.00033681 -9.29017e-06)
(-0.000395994 0.00104997 -2.47008e-05)
(-0.0014172 0.00137642 -1.27902e-05)
(-0.00259435 0.00135494 -9.46243e-06)
(-0.00366945 0.0012726 -6.62185e-06)
(-0.00466862 0.00115925 -4.99969e-06)
(-0.0055612 0.00101881 -4.06247e-06)
(-0.00632586 0.000853533 -3.62031e-06)
(-0.00694363 0.000665849 -3.62862e-06)
(-0.00739774 0.000458481 -4.09084e-06)
(-0.00767366 0.000234494 -5.03632e-06)
(-0.00776076 -2.87559e-06 -6.46345e-06)
(-0.00765029 -0.000249161 -8.31516e-06)
(-0.00733691 -0.000498504 -1.04919e-05)
(-0.00682153 -0.000744516 -1.28616e-05)
(-0.00611004 -0.000979468 -1.51896e-05)
(-0.00521491 -0.00119441 -1.71183e-05)
(-0.00415593 -0.00137939 -1.80591e-05)
(-0.00297085 -0.00152157 -1.69984e-05)
(-0.00164132 -0.00157947 -1.41755e-05)
(-0.000464549 -0.00122888 2.19392e-06)
(-0.000421771 0.00200392 -3.03855e-05)
(-0.00150931 0.0025912 -1.82857e-05)
(-0.00276201 0.00254749 -1.46279e-05)
(-0.00390524 0.00239048 -1.13193e-05)
(-0.00496774 0.002175 -9.19417e-06)
(-0.00591727 0.00190873 -7.71204e-06)
(-0.00673166 0.00159631 -6.69786e-06)
(-0.00739125 0.0012426 -6.12826e-06)
(-0.00787862 0.000852859 -6.02267e-06)
(-0.00817916 0.000432894 -6.39847e-06)
(-0.0082805 -1.09089e-05 -7.27971e-06)
(-0.0081723 -0.000470605 -8.68823e-06)
(-0.00784881 -0.000936137 -1.0504e-05)
(-0.00730954 -0.00139562 -1.25931e-05)
(-0.00655892 -0.00183486 -1.47085e-05)
(-0.00560839 -0.00223732 -1.64741e-05)
(-0.00447749 -0.00258435 -1.72558e-05)
(-0.00320606 -0.00285178 -1.59459e-05)
(-0.00177388 -0.00296302 -1.28248e-05)
(-0.000502589 -0.00233242 4.50474e-06)
(-0.000446794 0.00297066 -3.61523e-05)
(-0.00160089 0.00382854 -2.37076e-05)
(-0.00293128 0.00376201 -1.97306e-05)
(-0.00414492 0.00352945 -1.5978e-05)
(-0.00527369 0.00321122 -1.34057e-05)
(-0.006284 0.0028187 -1.14594e-05)
(-0.00715308 0.00235891 -9.97256e-06)
(-0.00786079 0.001839 -8.93519e-06)
(-0.00838915 0.00126652 -8.38195e-06)
(-0.00872244 0.000649631 -8.33854e-06)
(-0.00884788 -2.19992e-06 -8.76165e-06)
(-0.0087532 -0.000678463 -1.00492e-05)
(-0.00842934 -0.0013657 -1.17119e-05)
(-0.00787339 -0.00204685 -1.37194e-05)
(-0.00708702 -0.00270111 -1.58495e-05)
(-0.00607909 -0.00330381 -1.76897e-05)
(-0.00486757 -0.00382656 -1.85292e-05)
(-0.00349434 -0.004232 -1.71068e-05)
(-0.00193734 -0.00440505 -1.37085e-05)
(-0.000549504 -0.00348113 5.15155e-06)
(-0.000481011 0.00400695 -4.23924e-05)
(-0.0017255 0.00515613 -2.93186e-05)
(-0.00316124 0.00506496 -2.49763e-05)
(-0.00447028 0.0047518 -2.07523e-05)
(-0.00568862 0.00432444 -1.77496e-05)
(-0.00678094 0.0037985 -1.53918e-05)
(-0.0077239 0.00318359 -1.35189e-05)
(-0.00849698 0.00248924 -1.21355e-05)
(-0.00908174 0.00172511 -1.12956e-05)
(-0.00946166 0.000901321 -1.10565e-05)
(-0.00962205 2.90036e-05 -1.14721e-05)
(-0.00954862 -0.000878267 -1.26256e-05)
(-0.00922909 -0.0018045 -1.43595e-05)
(-0.00865565 -0.00272825 -1.65884e-05)
(-0.00782525 -0.00362214 -1.90676e-05)
(-0.00674231 -0.00445252 -2.13325e-05)
(-0.00542148 -0.00517924 -2.25491e-05)
(-0.00390654 -0.00574817 -2.121e-05)
(-0.00217287 -0.00599875 -1.75487e-05)
(-0.000617695 -0.00475494 3.74907e-06)
(-0.000525907 0.00513347 -5.00192e-05)
(-0.0018886 0.0066008 -3.60568e-05)
(-0.00346159 0.00648231 -3.12456e-05)
(-0.00489429 0.00608164 -2.64246e-05)
(-0.00622809 0.00553671 -2.28929e-05)
(-0.00742564 0.00486809 -2.00503e-05)
(-0.00846319 0.00408839 -1.77487e-05)
(-0.00932015 0.00320961 -1.60116e-05)
(-0.00997795 0.00224332 -1.49155e-05)
(-0.0104194 0.00120101 -1.45458e-05)
(-0.0106283 9.49242e-05 -1.49846e-05)
(-0.0105875 -0.00106063 -1.62642e-05)
(-0.01028 -0.00224761 -1.83094e-05)
(-0.00969166 -0.00344119 -2.10644e-05)
(-0.00881189 -0.00460795 -2.42695e-05)
(-0.00763757 -0.00570441 -2.74029e-05)
(-0.00617688 -0.00667614 -2.94515e-05)
(-0.00447406 -0.00744706 -2.85313e-05)
(-0.00250036 -0.00780003 -2.47193e-05)
(-0.000713435 -0.00620245 3.28151e-08)
(-0.000582612 0.00637531 -5.98789e-05)
(-0.00209434 0.00819467 -4.47864e-05)
(-0.00383967 0.00804471 -3.93278e-05)
(-0.00542634 0.00754688 -3.36685e-05)
(-0.00690276 0.00687298 -2.93801e-05)
(-0.00822938 0.0060496 -2.58486e-05)
(-0.00938249 0.00509302 -2.2951e-05)
(-0.0103422 0.00401792 -2.07389e-05)
(-0.0110905 0.00283748 -1.93155e-05)
(-0.0116102 0.00156376 -1.87943e-05)
(-0.0118838 0.000208719 -1.92809e-05)
(-0.0118912 -0.001214 -2.08785e-05)
(-0.0116097 -0.00268685 -2.35014e-05)
(-0.0110161 -0.00418358 -2.71701e-05)
(-0.0100886 -0.00566618 -3.16322e-05)
(-0.00881185 -0.00708106 -3.63124e-05)
(-0.00718183 -0.00835642 -3.99629e-05)
(-0.00523927 -0.00938706 -4.01346e-05)
(-0.00294812 -0.00988177 -3.65175e-05)
(-0.000846146 -0.00788926 -7.15747e-06)
(-0.00065274 0.00776102 -7.29396e-05)
(-0.00234846 0.00997407 -5.64649e-05)
(-0.00430532 0.00978612 -5.00613e-05)
(-0.00607865 0.00917768 -4.31556e-05)
(-0.00772603 0.00835945 -3.77078e-05)
(-0.00920571 0.00736569 -3.31169e-05)
(-0.010495 0.00621738 -2.931e-05)
(-0.0115758 0.00493229 -2.63799e-05)
(-0.0124322 0.00352495 -2.44641e-05)
(-0.0130483 0.00200695 -2.37115e-05)
(-0.0134061 0.000388159 -2.42743e-05)
(-0.0134831 -0.00132092 -2.63451e-05)
(-0.0132497 -0.00310661 -2.98561e-05)
(-0.0126711 -0.00494491 -3.49672e-05)
(-0.0117096 -0.00679643 -4.14861e-05)
(-0.0103296 -0.00859903 -4.87998e-05)
(-0.00850593 -0.0102607 -5.54009e-05)
(-0.00626632 -0.0116379 -5.80283e-05)
(-0.00356166 -0.0123372 -5.54518e-05)
(-0.00103203 -0.00990404 -2.03587e-05)
(-0.000738747 0.00932349 -9.05571e-05)
(-0.00265923 0.0119804 -7.23975e-05)
(-0.00487232 0.0117441 -6.45372e-05)
(-0.00686792 0.0110061 -5.56996e-05)
(-0.00871553 0.0100228 -4.841e-05)
(-0.0103716 0.00883842 -4.21383e-05)
(-0.011816 0.00748029 -3.69004e-05)
(-0.0130347 0.00597002 -3.28459e-05)
(-0.0140159 0.00432326 -3.01505e-05)
(-0.0147471 0.00254986 -2.90044e-05)
(-0.0152117 0.00065532 -2.9628e-05)
(-0.0153861 -0.00135647 -3.23236e-05)
(-0.0152338 -0.00348061 -3.70914e-05)
(-0.014706 -0.00570118 -4.43589e-05)
(-0.013743 -0.0079839 -5.41236e-05)
(-0.0122784 -0.0102633 -6.58377e-05)
(-0.0102506 -0.0124266 -7.7739e-05)
(-0.00765398 -0.0142826 -8.55585e-05)
(-0.00441627 -0.0152883 -8.5881e-05)
(-0.00130007 -0.0123744 -4.4248e-05)
(-0.000844503 0.0111021 -0.000114808)
(-0.00303895 0.014262 -9.45244e-05)
(-0.00556041 0.013961 -8.42929e-05)
(-0.00781727 0.0130664 -7.23509e-05)
(-0.00989466 0.0118894 -6.20682e-05)
(-0.0117484 0.010488 -5.30964e-05)
(-0.0133636 0.00889799 -4.55943e-05)
(-0.0147331 0.00714597 -3.97773e-05)
(-0.0158526 0.00524861 -3.58478e-05)
(-0.0167164 0.00321274 -3.40262e-05)
(-0.0173126 0.00103668 -3.4609e-05)
(-0.0176192 -0.00128676 -3.80495e-05)
(-0.0175945 -0.0037681 -4.44771e-05)
(-0.0171745 -0.00640852 -5.48071e-05)
(-0.0162719 -0.0091901 -6.94999e-05)
(-0.0147754 -0.0120558 -8.84042e-05)
(-0.0125643 -0.0148791 -0.000109655)
(-0.00955707 -0.0174184 -0.000128127)
(-0.00564308 -0.0188978 -0.000135351)
(-0.00170644 -0.0154975 -8.88204e-05)
(-0.000976408 0.0131466 -0.000149087)
(-0.00350634 0.0168778 -0.000125894)
(-0.00639821 0.0164856 -0.000111583)
(-0.00895924 0.0153946 -9.44796e-05)
(-0.011295 0.0139845 -7.9247e-05)
(-0.0133634 0.0123308 -6.59192e-05)
(-0.0151584 0.0104815 -5.48532e-05)
(-0.0166844 0.00846966 -4.6315e-05)
(-0.0179495 0.00631324 -4.04799e-05)
(-0.0189593 0.0040146 -3.75394e-05)
(-0.0197114 0.00156182 -3.78319e-05)
(-0.0201911 -0.00106873 -4.20386e-05)
(-0.0203558 -0.00390999 -5.04425e-05)
(-0.0201282 -0.00699452 -6.48279e-05)
(-0.0193906 -0.0103386 -8.65985e-05)
(-0.0179717 -0.0139167 -0.000116777)
(-0.0156645 -0.017609 -0.000154207)
(-0.0122232 -0.0211501 -0.000194046)
(-0.00748204 -0.0233821 -0.000216631)
(-0.00236714 -0.0195997 -0.000175584)
(-0.00114579 0.0155163 -0.000198955)
(-0.00409147 0.0198962 -0.000171209)
(-0.00742866 0.0193727 -0.000149666)
(-0.0103406 0.0180278 -0.000123776)
(-0.0129597 0.0163292 -0.000100258)
(-0.0152518 0.0143759 -7.99028e-05)
(-0.0172251 0.0122325 -6.32968e-05)
(-0.0189017 0.0099411 -5.06793e-05)
(-0.020308 0.00752113 -4.20376e-05)
(-0.0214681 0.0049695 -3.73632e-05)
(-0.0223962 0.00226186 -3.68386e-05)
(-0.0230913 -0.000646143 -4.10552e-05)
(-0.0235206 -0.00382437 -5.17884e-05)
(-0.0236033 -0.00734861 -7.1061e-05)
(-0.0231944 -0.0112959 -0.000102154)
(-0.0220517 -0.0157128 -0.000148858)
(-0.0198658 -0.0205317 -0.000213009)
(-0.0160546 -0.0255578 -0.00029477)
(-0.0103948 -0.028988 -0.000350861)
(-0.00353722 -0.0252818 -0.000350607)
(-0.00137007 0.0183452 -0.000276683)
(-0.0048364 0.0234345 -0.000239684)
(-0.00871168 0.0226991 -0.000204026)
(-0.0120272 0.0210057 -0.000162268)
(-0.0149482 0.0189385 -0.000124556)
(-0.0174605 0.0166202 -9.28756e-05)
(-0.0195936 0.0141382 -6.78457e-05)
(-0.0213962 0.0115449 -4.94005e-05)
(-0.0229214 0.00886159 -3.69265e-05)
(-0.0242189 0.00607888 -2.98615e-05)
(-0.0253274 0.00315527 -2.75111e-05)
(-0.0262776 1.49981e-05 -2.94508e-05)
(-0.0270586 -0.0034292 -4.39578e-05)
(-0.0276 -0.00732359 -6.73978e-05)
(-0.0277552 -0.0118462 -0.000108439)
(-0.027217 -0.0171776 -0.000176205)
(-0.0255999 -0.0233865 -0.000280401)
(-0.0216818 -0.0306051 -0.000439152)
(-0.0153335 -0.035912 -0.000566466)
(-0.00586124 -0.0337115 -0.000718288)
(-0.00171977 0.0214236 -0.000389342)
(-0.00587624 0.0274913 -0.000339734)
(-0.0103692 0.0264899 -0.00027953)
(-0.0141278 0.0243551 -0.000210796)
(-0.0173462 0.021816 -0.000149063)
(-0.0200525 0.0190433 -9.93654e-05)
(-0.0223007 0.0161642 -6.19403e-05)
(-0.0241785 0.0132427 -3.57915e-05)
(-0.0257741 0.0103022 -1.88934e-05)
(-0.0271747 0.00732784 -9.4697e-06)
(-0.0284605 0.00427289 -6.35825e-06)
(-0.0296763 0.00105487 -1.02561e-05)
(-0.0308599 -0.00247352 -1.13026e-05)
(-0.0320214 -0.00658575 -3.40045e-05)
(-0.033049 -0.0115467 -8.05186e-05)
(-0.0336102 -0.017784 -0.000166579)
(-0.0334081 -0.0255813 -0.000319139)
(-0.0300837 -0.036096 -0.000609764)
(-0.0242209 -0.0441959 -0.000875931)
(-0.0109175 -0.0471805 -0.00150287)
(-0.00194579 0.0263933 -0.000631338)
(-0.00691517 0.0325138 -0.000504602)
(-0.012421 0.0309617 -0.00039418)
(-0.0167296 0.0280238 -0.000264888)
(-0.0202604 0.0248664 -0.00016154)
(-0.0231126 0.021554 -8.48679e-05)
(-0.0253938 0.0182307 -3.09861e-05)
(-0.0272576 0.0149601 3.88535e-06)
(-0.0288352 0.0117708 2.52544e-05)
(-0.0302464 0.00863866 3.76985e-05)
(-0.0315976 0.00548567 4.56273e-05)
(-0.0330198 0.00217483 5.08776e-05)
(-0.0346921 -0.00148829 4.50086e-05)
(-0.0366624 -0.00573172 2.39371e-05)
(-0.0389354 -0.0109476 -5.01174e-06)
(-0.0412662 -0.0179146 -7.66986e-05)
(-0.044001 -0.0270926 -0.000244187)
(-0.0426454 -0.041512 -0.000692162)
(-0.0401151 -0.0533808 -0.00114646)
(-0.0214366 -0.0698047 -0.00294258)
(-0.00387554 0.0289778 -0.000910112)
(-0.0102112 0.0390764 -0.000822528)
(-0.0155069 0.0363468 -0.000568149)
(-0.0202597 0.0329212 -0.000363526)
(-0.0238151 0.0287462 -0.00017414)
(-0.0266901 0.0245001 -4.10222e-05)
(-0.0288932 0.0204565 4.5509e-05)
(-0.0306344 0.0167032 9.32133e-05)
(-0.0320887 0.0132532 0.00011579)
(-0.0334504 0.0100676 0.000123552)
(-0.0349125 0.00708673 0.000123626)
(-0.0366355 0.00420666 0.000122)
(-0.0387496 0.00132506 0.000130098)
(-0.0414659 -0.00186802 0.000177351)
(-0.045207 -0.00575081 0.000219227)
(-0.0497739 -0.0121356 0.000245951)
(-0.0568486 -0.0203957 0.00024738)
(-0.0591575 -0.0413056 -0.000180764)
(-0.0644573 -0.0591006 -0.000515137)
(-0.0354871 -0.110972 -0.00434291)
(-0.00135935 0.0426149 -0.00166939)
(-0.00903145 0.041459 -0.00083451)
(-0.0192782 0.0398967 -0.000608107)
(-0.0243105 0.0340948 -0.000131427)
(-0.0286379 0.0297369 9.70524e-05)
(-0.0313602 0.0253344 0.00023787)
(-0.0331277 0.0212622 0.000303323)
(-0.0343619 0.0174906 0.000323032)
(-0.0353218 0.0140476 0.000321168)
(-0.0362046 0.0109076 0.000314214)
(-0.037184 0.00803894 0.000317513)
(-0.0384307 0.00531002 0.000343985)
(-0.0403156 0.00265528 0.000415261)
(-0.0431185 -0.000449254 0.000553309)
(-0.0482771 -0.00396108 0.000801956)
(-0.0543097 -0.0101833 0.0012181)
(-0.0695257 -0.0184171 0.0019523)
(-0.075105 -0.0431818 0.00232314)
(-0.0919036 -0.0750124 0.00325512)
(-0.0334824 -0.179314 -0.00433534)
(-0.00643801 0.0343741 -0.00280001)
(-0.0214945 0.063857 -0.00257186)
(-0.02172 0.053746 -0.00141435)
(-0.0307703 0.0476683 -0.000726887)
(-0.0328837 0.0391655 -5.43027e-05)
(-0.0349445 0.0317108 0.000303929)
(-0.0357132 0.0253864 0.000501936)
(-0.0360229 0.0201886 0.000572771)
(-0.0361038 0.0159826 0.000575832)
(-0.0362236 0.0125621 0.00054851)
(-0.0366831 0.00991938 0.00052763)
(-0.0376194 0.00774667 0.000531188)
(-0.0396138 0.0066936 0.000633162)
(-0.0424115 0.00579784 0.00088084)
(-0.0483281 0.00807188 0.00154915)
(-0.0533673 0.0068657 0.00278333)
(-0.0687676 0.0103756 0.00542653)
(-0.0614925 -0.0240026 0.00758687)
(-0.0841352 -0.076094 0.0103199)
(0.0135274 -0.242976 -0.00498514)
(-0.0672502 0.0803386 -0.00566797)
(-0.0468295 0.045147 -0.000821461)
(-0.0571369 0.0451104 0.000159358)
(-0.0426697 0.0369552 0.00180138)
(-0.0344796 0.0292999 0.00216719)
(-0.0247769 0.0236245 0.00227397)
(-0.0164579 0.0190929 0.00211406)
(-0.00939449 0.0153526 0.00184989)
(-0.00367559 0.0123325 0.00157688)
(0.00104324 0.00985571 0.00133352)
(0.00448756 0.00817852 0.0011741)
(0.00784886 0.00664162 0.00107866)
(0.00947693 0.00653435 0.00117041)
(0.0139028 0.00562744 0.00150439)
(0.0126487 0.00747984 0.00241343)
(0.0273322 0.0039067 0.0042629)
(0.0149554 -0.00321126 0.00808307)
(0.060015 -0.0451236 0.0128907)
(0.00983917 -0.145248 0.011531)
(0.0809537 -0.284252 -0.0122304)
(0.0947279 0.123213 -0.00771246)
(0.126295 0.0717309 -0.00596634)
(0.185214 0.0519251 -0.0049096)
(0.227148 0.0376984 -0.00285755)
(0.257383 0.027654 -0.00103329)
(0.280996 0.02 0.000209619)
(0.29959 0.0145548 0.000973665)
(0.314267 0.010761 0.00134004)
(0.325114 0.00816074 0.0014972)
(0.33487 0.00623832 0.00132181)
(0.339938 0.00475864 0.00137401)
(0.349465 0.00396354 0.000887043)
(0.346882 0.00221812 0.00123984)